<LesHouchesEvents version="3.0">
<header>
<!--
#*********************************************************************
#                                                                    *
#                        MadGraph5_aMC@NLO                           *
#                                                                    *
#                           Going Beyond                             *
#                                                                    *
#                   http://madgraph.hep.uiuc.edu                     *
#                   http://madgraph.phys.ucl.ac.be                   *
#                   http://amcatnlo.cern.ch                          *
#                                                                    *
#                     The MadGraph5_aMC@NLO team                     *
#                                                                    *
#....................................................................*
#                                                                    *
# This file contains all the information necessary to reproduce      *
# the events generated:                                              *
#                                                                    *
# 1. software version                                                *
# 2. proc_card          : code generation info including model       *
# 3. param_card         : model primary parameters in the LH format  *
# 4. run_card           : running parameters (collider and cuts)     *
# 5. pythia_card        : present only if pythia has been run        *
# 6. pgs_card           : present only if pgs has been run           *
# 7. delphes_cards      : present only if delphes has been run       *
#                                                                    *
#                                                                    *
#*********************************************************************
-->
<MGVersion>
#2.7.0
</MGVersion>
<MG5ProcCard>
<![CDATA[
#************************************************************
#*                     MadGraph5_aMC@NLO                    *
#*                                                          *
#*                *                       *                 *
#*                  *        * *        *                   *
#*                    * * * * 5 * * * *                     *
#*                  *        * *        *                   *
#*                *                       *                 *
#*                                                          *
#*                                                          *
#*         VERSION 2.7.0                 2020-01-20         *
#*                                                          *
#*    The MadGraph5_aMC@NLO Development Team - Find us at   *
#*    https://server06.fynu.ucl.ac.be/projects/madgraph     *
#*                                                          *
#************************************************************
#*                                                          *
#*               Command File for MadGraph5_aMC@NLO         *
#*                                                          *
#*     run as ./bin/mg5_aMC  filename                       *
#*                                                          *
#************************************************************
set default_unset_couplings 99
set group_subprocesses Auto
set ignore_six_quark_processes False
set loop_optimized_output True
set loop_color_flows False
set gauge unitary
set complex_mass_scheme False
set max_npoint_for_channel 0
import model sm
define p = g u c d s u~ c~ d~ s~
define j = g u c d s u~ c~ d~ s~
define l+ = e+ mu+
define l- = e- mu-
define vl = ve vm vt
define vl~ = ve~ vm~ vt~
import model heft
generate g g > h
output MSSMD -nojpeg
]]>
</MG5ProcCard>
<MGProcCard>
#*********************************************************************
#                        MadGraph/MadEvent                           *
#                   http://madgraph.hep.uiuc.edu                     *
#                                                                    *
#                          proc_card.dat                             *
#*********************************************************************
#                                                                    *
#            This Files is generated by MADGRAPH 5                   *
#                                                                    *
# WARNING: This Files is generated for MADEVENT (compatibility issue)*
#          This files is NOT a valid MG4 proc_card.dat               *
#          Running this in MG4 will NEVER reproduce the result of MG5*
#                                                                    *
#*********************************************************************
#*********************************************************************
# Process(es) requested : mg2 input                                  *
#*********************************************************************
# Begin PROCESS # This is TAG. Do not modify this line
g g > h           #Process
# Be carefull the coupling are here in MG5 convention
          
end_coup           # End the couplings input

done               # this tells MG there are no more procs
# End PROCESS  # This is TAG. Do not modify this line
#*********************************************************************
# Model information                                                  *
#*********************************************************************
# Begin MODEL  # This is TAG. Do not modify this line
heft
# End   MODEL  # This is TAG. Do not modify this line
#*********************************************************************
# Start multiparticle definitions                                    *
#*********************************************************************
# Begin MULTIPARTICLES # This is TAG. Do not modify this line

# End  MULTIPARTICLES # This is TAG. Do not modify this line
</MGProcCard>
<MGRunCard>
<![CDATA[
#*********************************************************************
#                       MadGraph5_aMC@NLO                            *
#                                                                    *
#                     run_card.dat MadEvent                          *
#                                                                    *
#  This file is used to set the parameters of the run.               *
#                                                                    *
#  Some notation/conventions:                                        *
#                                                                    *
#   Lines starting with a '# ' are info or comments                  *
#                                                                    *
#   mind the format:   value    = variable     ! comment             *
#                                                                    *
#   To display more options, you can type the command:               *
#      update full_run_card                                          *
#*********************************************************************
#
#*******************
# Running parameters
#*******************
#
#*********************************************************************
# Tag name for the run (one word)                                    *
#*********************************************************************
  tag_1     = run_tag ! name of the run
#*********************************************************************
# Number of events and rnd seed                                      *
# Warning: Do not generate more than 1M events in a single run       *
#*********************************************************************
  100  = nevents ! Number of unweighted events requested 
 21 = iseed   ! rnd seed (0=assigned automatically=default))
#*********************************************************************
# Collider type and energy                                           *
# lpp: 0=No PDF, 1=proton, -1=antiproton, 2=photon from proton,      *
#                                         3=photon from electron     *
#*********************************************************************
     1        = lpp1    ! beam 1 type
     1        = lpp2    ! beam 2 type
     6500.0     = ebeam1  ! beam 1 total energy in GeV
     6500.0     = ebeam2  ! beam 2 total energy in GeV
# To see polarised beam options: type "update beam_pol"
#*********************************************************************
# PDF CHOICE: this automatically fixes also alpha_s and its evol.    *
#*********************************************************************
     nn23lo1    = pdlabel     ! PDF set
     230000    = lhaid     ! if pdlabel=lhapdf, this is the lhapdf number
# To see heavy ion options: type "update ion_pdf"
#*********************************************************************
# Renormalization and factorization scales                           *
#*********************************************************************
 False = fixed_ren_scale  ! if .true. use fixed ren scale
 False        = fixed_fac_scale  ! if .true. use fixed fac scale
 91.188  = scale            ! fixed ren scale
 91.188  = dsqrt_q2fact1    ! fixed fact scale for pdf1
 91.188  = dsqrt_q2fact2    ! fixed fact scale for pdf2
 -1 = dynamical_scale_choice ! Choose one of the preselected dynamical choices
 1.0  = scalefact        ! scale factor for event-by-event scales
#*********************************************************************
# Type and output format
#*********************************************************************
  False     = gridpack  !True = setting up the grid pack
  -1.0 = time_of_flight ! threshold (in mm) below which the invariant livetime is not written (-1 means not written)
  3.0 = lhe_version       ! Change the way clustering information pass to shower.
  True = clusinfo         ! include clustering tag in output
  average =  event_norm       ! average/sum. Normalization of the weight in the LHEF

#*********************************************************************
# Matching parameter (MLM only)
#*********************************************************************
 0 = ickkw            ! 0 no matching, 1 MLM
 1.0 = alpsfact         ! scale factor for QCD emission vx
 False = chcluster        ! cluster only according to channel diag
 4 = asrwgtflavor     ! highest quark flavor for a_s reweight
 True  = auto_ptj_mjj  ! Automatic setting of ptj and mjj if xqcut >0
                                   ! (turn off for VBF and single top processes)
 0.0   = xqcut   ! minimum kt jet measure between partons
#*********************************************************************
#
#*********************************************************************
# handling of the helicities:
#  0: sum over all helicities
#  1: importance sampling over helicities
#*********************************************************************
   0  = nhel          ! using helicities importance sampling or not.
#*********************************************************************
# Generation bias, check the wiki page below for more information:   *
#  'cp3.irmp.ucl.ac.be/projects/madgraph/wiki/LOEventGenerationBias' *
#*********************************************************************
 None = bias_module  ! Bias type of bias, [None, ptj_bias, -custom_folder-]
 {} = bias_parameters ! Specifies the parameters of the module.
#
#*******************************
# Parton level cuts definition *
#*******************************
#
#
#*********************************************************************
# BW cutoff (M+/-bwcutoff*Gamma) ! Define on/off-shell for "$" and decay
#*********************************************************************
  15.0  = bwcutoff      ! (M+/-bwcutoff*Gamma)
#*********************************************************************
# Apply pt/E/eta/dr/mij/kt_durham cuts on decay products or not
# (note that etmiss/ptll/ptheavy/ht/sorted cuts always apply)
#*********************************************************************
   False  = cut_decays    ! Cut decay products
#*********************************************************************
# Standard Cuts                                                      *
#*********************************************************************
# Minimum and maximum pt's (for max, -1 means no cut)                *
#*********************************************************************
 20.0  = ptj       ! minimum pt for the jets
 0.0  = ptb       ! minimum pt for the b
 10.0  = pta       ! minimum pt for the photons
 10.0  = ptl       ! minimum pt for the charged leptons
 0.0  = misset    ! minimum missing Et (sum of neutrino's momenta)
 -1.0  = ptjmax    ! maximum pt for the jets
 -1.0  = ptbmax    ! maximum pt for the b
 -1.0  = ptamax    ! maximum pt for the photons
 -1.0  = ptlmax    ! maximum pt for the charged leptons
 -1.0  = missetmax ! maximum missing Et (sum of neutrino's momenta)
 {} = pt_min_pdg ! pt cut for other particles (use pdg code). Applied on particle and anti-particle
 {}	= pt_max_pdg ! pt cut for other particles (syntax e.g. {6: 100, 25: 50})
#
# For display option for energy cut in the partonic center of mass frame type 'update ecut'
#
#*********************************************************************
# Maximum and minimum absolute rapidity (for max, -1 means no cut)   *
#*********************************************************************
  5.0 = etaj    ! max rap for the jets
  -1.0  = etab    ! max rap for the b
 2.5  = etaa    ! max rap for the photons
 2.5  = etal    ! max rap for the charged leptons
 0.0  = etajmin ! min rap for the jets
 0.0  = etabmin ! min rap for the b
 0.0  = etaamin ! min rap for the photons
 0.0  = etalmin ! main rap for the charged leptons
 {} = eta_min_pdg ! rap cut for other particles (use pdg code). Applied on particle and anti-particle
 {} = eta_max_pdg ! rap cut for other particles (syntax e.g. {6: 2.5, 23: 5})
#*********************************************************************
# Minimum and maximum DeltaR distance                                *
#*********************************************************************
 0.4 = drjj    ! min distance between jets
 0.0   = drbb    ! min distance between b's
 0.4 = drll    ! min distance between leptons
 0.4 = draa    ! min distance between gammas
 0.0   = drbj    ! min distance between b and jet
 0.4 = draj    ! min distance between gamma and jet
 0.4 = drjl    ! min distance between jet and lepton
 0.0   = drab    ! min distance between gamma and b
 0.0   = drbl    ! min distance between b and lepton
 0.4 = dral    ! min distance between gamma and lepton
 -1.0  = drjjmax ! max distance between jets
 -1.0  = drbbmax ! max distance between b's
 -1.0  = drllmax ! max distance between leptons
 -1.0  = draamax ! max distance between gammas
 -1.0  = drbjmax ! max distance between b and jet
 -1.0  = drajmax ! max distance between gamma and jet
 -1.0  = drjlmax ! max distance between jet and lepton
 -1.0  = drabmax ! max distance between gamma and b
 -1.0  = drblmax ! max distance between b and lepton
 -1.0  = dralmax ! maxdistance between gamma and lepton
#*********************************************************************
# Minimum and maximum invariant mass for pairs                       *
# WARNING: for four lepton final state mmll cut require to have      *
#          different lepton masses for each flavor!                  *
#*********************************************************************
 0.0   = mmjj    ! min invariant mass of a jet pair
 0.0   = mmbb    ! min invariant mass of a b pair
 0.0   = mmaa    ! min invariant mass of gamma gamma pair
 0.0   = mmll    ! min invariant mass of l+l- (same flavour) lepton pair
 -1.0  = mmjjmax ! max invariant mass of a jet pair
 -1.0  = mmbbmax ! max invariant mass of a b pair
 -1.0  = mmaamax ! max invariant mass of gamma gamma pair
 -1.0  = mmllmax ! max invariant mass of l+l- (same flavour) lepton pair
 {} = mxx_min_pdg ! min invariant mass of a pair of particles X/X~ (e.g. {6:250})
 {'default': False} = mxx_only_part_antipart ! if True the invariant mass is applied only
                       ! to pairs of particle/antiparticle and not to pairs of the same pdg codes.
#*********************************************************************
# Minimum and maximum invariant mass for all letpons                 *
#*********************************************************************
 0.0   = mmnl    ! min invariant mass for all letpons (l+- and vl)
 -1.0  = mmnlmax ! max invariant mass for all letpons (l+- and vl)
#*********************************************************************
# Minimum and maximum pt for 4-momenta sum of leptons                *
#*********************************************************************
 0.0   = ptllmin  ! Minimum pt for 4-momenta sum of leptons(l and vl)
 -1.0  = ptllmax  ! Maximum pt for 4-momenta sum of leptons(l and vl)
#*********************************************************************
# Inclusive cuts                                                     *
#*********************************************************************
 0.0  = ptheavy   ! minimum pt for at least one heavy final state
 0.0  = xptj ! minimum pt for at least one jet
 0.0  = xptb ! minimum pt for at least one b
 0.0  = xpta ! minimum pt for at least one photon
 0.0  = xptl ! minimum pt for at least one charged lepton
#*********************************************************************
# Control the pt's of the jets sorted by pt                          *
#*********************************************************************
 0.0   = ptj1min ! minimum pt for the leading jet in pt
 0.0   = ptj2min ! minimum pt for the second jet in pt
 0.0   = ptj3min ! minimum pt for the third jet in pt
 0.0   = ptj4min ! minimum pt for the fourth jet in pt
 -1.0  = ptj1max ! maximum pt for the leading jet in pt
 -1.0  = ptj2max ! maximum pt for the second jet in pt
 -1.0  = ptj3max ! maximum pt for the third jet in pt
 -1.0  = ptj4max ! maximum pt for the fourth jet in pt
 0   = cutuse  ! reject event if fails any (0) / all (1) jet pt cuts
#*********************************************************************
# Control the pt's of leptons sorted by pt                           *
#*********************************************************************
 0.0   = ptl1min ! minimum pt for the leading lepton in pt
 0.0   = ptl2min ! minimum pt for the second lepton in pt
 0.0   = ptl3min ! minimum pt for the third lepton in pt
 0.0   = ptl4min ! minimum pt for the fourth lepton in pt
 -1.0  = ptl1max ! maximum pt for the leading lepton in pt
 -1.0  = ptl2max ! maximum pt for the second lepton in pt
 -1.0  = ptl3max ! maximum pt for the third lepton in pt
 -1.0  = ptl4max ! maximum pt for the fourth lepton in pt
#*********************************************************************
# Control the Ht(k)=Sum of k leading jets                            *
#*********************************************************************
 0.0   = htjmin ! minimum jet HT=Sum(jet pt)
 -1.0  = htjmax ! maximum jet HT=Sum(jet pt)
 0.0   = ihtmin  !inclusive Ht for all partons (including b)
 -1.0  = ihtmax  !inclusive Ht for all partons (including b)
 0.0   = ht2min ! minimum Ht for the two leading jets
 0.0   = ht3min ! minimum Ht for the three leading jets
 0.0   = ht4min ! minimum Ht for the four leading jets
 -1.0  = ht2max ! maximum Ht for the two leading jets
 -1.0  = ht3max ! maximum Ht for the three leading jets
 -1.0  = ht4max ! maximum Ht for the four leading jets
#***********************************************************************
# Photon-isolation cuts, according to hep-ph/9801442                   *
# When ptgmin=0, all the other parameters are ignored                  *
# When ptgmin>0, pta and draj are not going to be used                 *
#***********************************************************************
 0.0 = ptgmin ! Min photon transverse momentum
 0.4 = R0gamma ! Radius of isolation code
 1.0 = xn ! n parameter of eq.(3.4) in hep-ph/9801442
 1.0 = epsgamma ! epsilon_gamma parameter of eq.(3.4) in hep-ph/9801442
 True = isoEM ! isolate photons from EM energy (photons and leptons)
#*********************************************************************
# WBF cuts                                                           *
#*********************************************************************
 0.0   = xetamin ! minimum rapidity for two jets in the WBF case
 0.0   = deltaeta ! minimum rapidity for two jets in the WBF case
#***********************************************************************
# Turn on either the ktdurham or ptlund cut to activate                *
# CKKW(L) merging with Pythia8 [arXiv:1410.3012, arXiv:1109.4829]      *
#***********************************************************************
 -1.0  =  ktdurham
 0.4   =  dparameter
 -1.0  =  ptlund
 1, 2, 3, 4, 5, 6, 21  =  pdgs_for_merging_cut ! PDGs for two cuts above
#*********************************************************************
# maximal pdg code for quark to be considered as a light jet         *
# (otherwise b cuts are applied)                                     *
#*********************************************************************
 4 = maxjetflavor    ! Maximum jet pdg code
#*********************************************************************
#
#*********************************************************************
# Store info for systematics studies                                 *
# WARNING: Do not use for interference type of computation           *
#*********************************************************************
   True  = use_syst      ! Enable systematics studies
#
systematics = systematics_program ! none, systematics [python], SysCalc [depreceted, C++]
['--mur=0.5,1,2', '--muf=0.5,1,2', '--pdf=errorset'] = systematics_arguments ! see: https://cp3.irmp.ucl.ac.be/projects/madgraph/wiki/Systematics#Systematicspythonmodule
# Syscalc is deprecated but to see the associate options type'update syscalc'
]]>
</MGRunCard>
<slha>
######################################################################
## PARAM_CARD AUTOMATICALY GENERATED BY MG5 FOLLOWING UFO MODEL   ####
######################################################################
##                                                                  ##
##  Width set on Auto will be computed following the information    ##
##        present in the decay.py files of the model.               ##
##        See  arXiv:1402.1178 for more details.                    ##
##                                                                  ##
######################################################################

###################################
## INFORMATION FOR MASS
###################################
Block mass 
    5 4.700000e+00 # MB 
    6 1.730000e+02 # MT 
   15 1.777000e+00 # MTA 
   23 9.118800e+01 # MZ 
   25 1.250000e+02 # MH 
  9000006 1.250001e+02 # MP 
## Dependent parameters, given by model restrictions.
## Those values should be edited following the 
## analytical expression. MG5 ignores those values 
## but they are important for interfacing the output of MG5
## to external program such as Pythia.
  1 0.000000e+00 # d : 0.0 
  2 0.000000e+00 # u : 0.0 
  3 0.000000e+00 # s : 0.0 
  4 0.000000e+00 # c : 0.0 
  11 0.000000e+00 # e- : 0.0 
  12 0.000000e+00 # ve : 0.0 
  13 0.000000e+00 # mu- : 0.0 
  14 0.000000e+00 # vm : 0.0 
  16 0.000000e+00 # vt : 0.0 
  21 0.000000e+00 # g : 0.0 
  22 0.000000e+00 # a : 0.0 
  24 8.041900e+01 # w+ : cmath.sqrt(MZ__exp__2/2. + cmath.sqrt(MZ__exp__4/4. - (aEW*cmath.pi*MZ__exp__2)/(Gf*sqrt__2))) 

###################################
## INFORMATION FOR SMINPUTS
###################################
Block sminputs 
    1 1.325070e+02 # aEWM1 
    2 1.166390e-05 # Gf 
    3 1.180000e-01 # aS 

###################################
## INFORMATION FOR YUKAWA
###################################
Block yukawa 
    5 4.200000e+00 # ymb 
    6 1.645000e+02 # ymt 
   15 1.777000e+00 # ymtau 

###################################
## INFORMATION FOR DECAY
###################################
DECAY   6 1.491500e+00 # WT 
DECAY  23 2.441404e+00 # WZ 
DECAY  24 2.047600e+00 # WW 
DECAY  25 6.382339e-03 # WH 
DECAY 9000006 6.382339e-03 # WH1 
## Dependent parameters, given by model restrictions.
## Those values should be edited following the 
## analytical expression. MG5 ignores those values 
## but they are important for interfacing the output of MG5
## to external program such as Pythia.
DECAY  1 0.000000e+00 # d : 0.0 
DECAY  2 0.000000e+00 # u : 0.0 
DECAY  3 0.000000e+00 # s : 0.0 
DECAY  4 0.000000e+00 # c : 0.0 
DECAY  5 0.000000e+00 # b : 0.0 
DECAY  11 0.000000e+00 # e- : 0.0 
DECAY  12 0.000000e+00 # ve : 0.0 
DECAY  13 0.000000e+00 # mu- : 0.0 
DECAY  14 0.000000e+00 # vm : 0.0 
DECAY  15 0.000000e+00 # ta- : 0.0 
DECAY  16 0.000000e+00 # vt : 0.0 
DECAY  21 0.000000e+00 # g : 0.0 
DECAY  22 0.000000e+00 # a : 0.0 
#===========================================================
# QUANTUM NUMBERS OF NEW STATE(S) (NON SM PDG CODE)
#===========================================================

Block QNUMBERS 9000006  # h1 
        1 0  # 3 times electric charge
        2 1  # number of spin states (2S+1)
        3 1  # colour rep (1: singlet, 3: triplet, 8: octet)
        4 0  # Particle/Antiparticle distinction (0=own anti)
</slha>
<initrwgt>
<weightgroup name="Central scale variation" combine="envelope">
<weight id="1" MUR="0.5"  MUF="0.5"  PDF="247000" > MUR=0.5 MUF=0.5  </weight>
<weight id="2" MUR="0.5"  MUF="0.5"  DYN_SCALE="1"  PDF="247000" > MUR=0.5 MUF=0.5 dyn_scale_choice=sum pt  </weight>
<weight id="3" MUR="0.5"  MUF="0.5"  DYN_SCALE="2"  PDF="247000" > MUR=0.5 MUF=0.5 dyn_scale_choice=HT  </weight>
<weight id="4" MUR="0.5"  MUF="0.5"  DYN_SCALE="3"  PDF="247000" > MUR=0.5 MUF=0.5 dyn_scale_choice=HT/2  </weight>
<weight id="5" MUR="0.5"  MUF="0.5"  DYN_SCALE="4"  PDF="247000" > MUR=0.5 MUF=0.5 dyn_scale_choice=sqrts  </weight>
<weight id="6" MUR="0.5"  MUF="1.0"  PDF="247000" > MUR=0.5  </weight>
<weight id="7" MUR="0.5"  MUF="1.0"  DYN_SCALE="1"  PDF="247000" > MUR=0.5 dyn_scale_choice=sum pt  </weight>
<weight id="8" MUR="0.5"  MUF="1.0"  DYN_SCALE="2"  PDF="247000" > MUR=0.5 dyn_scale_choice=HT  </weight>
<weight id="9" MUR="0.5"  MUF="1.0"  DYN_SCALE="3"  PDF="247000" > MUR=0.5 dyn_scale_choice=HT/2  </weight>
<weight id="10" MUR="0.5"  MUF="1.0"  DYN_SCALE="4"  PDF="247000" > MUR=0.5 dyn_scale_choice=sqrts  </weight>
<weight id="11" MUR="0.5"  MUF="2.0"  PDF="247000" > MUR=0.5 MUF=2.0  </weight>
<weight id="12" MUR="0.5"  MUF="2.0"  DYN_SCALE="1"  PDF="247000" > MUR=0.5 MUF=2.0 dyn_scale_choice=sum pt  </weight>
<weight id="13" MUR="0.5"  MUF="2.0"  DYN_SCALE="2"  PDF="247000" > MUR=0.5 MUF=2.0 dyn_scale_choice=HT  </weight>
<weight id="14" MUR="0.5"  MUF="2.0"  DYN_SCALE="3"  PDF="247000" > MUR=0.5 MUF=2.0 dyn_scale_choice=HT/2  </weight>
<weight id="15" MUR="0.5"  MUF="2.0"  DYN_SCALE="4"  PDF="247000" > MUR=0.5 MUF=2.0 dyn_scale_choice=sqrts  </weight>
<weight id="16" MUR="1.0"  MUF="0.5"  PDF="247000" > MUF=0.5  </weight>
<weight id="17" MUR="1.0"  MUF="0.5"  DYN_SCALE="1"  PDF="247000" > MUF=0.5 dyn_scale_choice=sum pt  </weight>
<weight id="18" MUR="1.0"  MUF="0.5"  DYN_SCALE="2"  PDF="247000" > MUF=0.5 dyn_scale_choice=HT  </weight>
<weight id="19" MUR="1.0"  MUF="0.5"  DYN_SCALE="3"  PDF="247000" > MUF=0.5 dyn_scale_choice=HT/2  </weight>
<weight id="20" MUR="1.0"  MUF="0.5"  DYN_SCALE="4"  PDF="247000" > MUF=0.5 dyn_scale_choice=sqrts  </weight>
<weight id="21" MUR="1.0"  MUF="1.0"  DYN_SCALE="1"  PDF="247000" > dyn_scale_choice=sum pt  </weight>
<weight id="22" MUR="1.0"  MUF="1.0"  DYN_SCALE="2"  PDF="247000" > dyn_scale_choice=HT  </weight>
<weight id="23" MUR="1.0"  MUF="1.0"  DYN_SCALE="3"  PDF="247000" > dyn_scale_choice=HT/2  </weight>
<weight id="24" MUR="1.0"  MUF="1.0"  DYN_SCALE="4"  PDF="247000" > dyn_scale_choice=sqrts  </weight>
<weight id="25" MUR="1.0"  MUF="2.0"  PDF="247000" > MUF=2.0  </weight>
<weight id="26" MUR="1.0"  MUF="2.0"  DYN_SCALE="1"  PDF="247000" > MUF=2.0 dyn_scale_choice=sum pt  </weight>
<weight id="27" MUR="1.0"  MUF="2.0"  DYN_SCALE="2"  PDF="247000" > MUF=2.0 dyn_scale_choice=HT  </weight>
<weight id="28" MUR="1.0"  MUF="2.0"  DYN_SCALE="3"  PDF="247000" > MUF=2.0 dyn_scale_choice=HT/2  </weight>
<weight id="29" MUR="1.0"  MUF="2.0"  DYN_SCALE="4"  PDF="247000" > MUF=2.0 dyn_scale_choice=sqrts  </weight>
<weight id="30" MUR="2.0"  MUF="0.5"  PDF="247000" > MUR=2.0 MUF=0.5  </weight>
<weight id="31" MUR="2.0"  MUF="0.5"  DYN_SCALE="1"  PDF="247000" > MUR=2.0 MUF=0.5 dyn_scale_choice=sum pt  </weight>
<weight id="32" MUR="2.0"  MUF="0.5"  DYN_SCALE="2"  PDF="247000" > MUR=2.0 MUF=0.5 dyn_scale_choice=HT  </weight>
<weight id="33" MUR="2.0"  MUF="0.5"  DYN_SCALE="3"  PDF="247000" > MUR=2.0 MUF=0.5 dyn_scale_choice=HT/2  </weight>
<weight id="34" MUR="2.0"  MUF="0.5"  DYN_SCALE="4"  PDF="247000" > MUR=2.0 MUF=0.5 dyn_scale_choice=sqrts  </weight>
<weight id="35" MUR="2.0"  MUF="1.0"  PDF="247000" > MUR=2.0  </weight>
<weight id="36" MUR="2.0"  MUF="1.0"  DYN_SCALE="1"  PDF="247000" > MUR=2.0 dyn_scale_choice=sum pt  </weight>
<weight id="37" MUR="2.0"  MUF="1.0"  DYN_SCALE="2"  PDF="247000" > MUR=2.0 dyn_scale_choice=HT  </weight>
<weight id="38" MUR="2.0"  MUF="1.0"  DYN_SCALE="3"  PDF="247000" > MUR=2.0 dyn_scale_choice=HT/2  </weight>
<weight id="39" MUR="2.0"  MUF="1.0"  DYN_SCALE="4"  PDF="247000" > MUR=2.0 dyn_scale_choice=sqrts  </weight>
<weight id="40" MUR="2.0"  MUF="2.0"  PDF="247000" > MUR=2.0 MUF=2.0  </weight>
<weight id="41" MUR="2.0"  MUF="2.0"  DYN_SCALE="1"  PDF="247000" > MUR=2.0 MUF=2.0 dyn_scale_choice=sum pt  </weight>
<weight id="42" MUR="2.0"  MUF="2.0"  DYN_SCALE="2"  PDF="247000" > MUR=2.0 MUF=2.0 dyn_scale_choice=HT  </weight>
<weight id="43" MUR="2.0"  MUF="2.0"  DYN_SCALE="3"  PDF="247000" > MUR=2.0 MUF=2.0 dyn_scale_choice=HT/2  </weight>
<weight id="44" MUR="2.0"  MUF="2.0"  DYN_SCALE="4"  PDF="247000" > MUR=2.0 MUF=2.0 dyn_scale_choice=sqrts  </weight>
</weightgroup> # scale
<weightgroup name="NNPDF23_lo_as_0130_qed" combine="replicas"> # 247000: LO QCD + LO QED PDF set, alphas(MZ)=0.130. mem=0 ; average on replicas; mem=1-100 ; PDF replicas
<weight id="45" MUR="1.0"  MUF="1.0"  PDF="247000" >  </weight>
<weight id="46" MUR="1.0"  MUF="1.0"  PDF="247001" > PDF=247000 MemberID=1 </weight>
<weight id="47" MUR="1.0"  MUF="1.0"  PDF="247002" > PDF=247000 MemberID=2 </weight>
<weight id="48" MUR="1.0"  MUF="1.0"  PDF="247003" > PDF=247000 MemberID=3 </weight>
<weight id="49" MUR="1.0"  MUF="1.0"  PDF="247004" > PDF=247000 MemberID=4 </weight>
<weight id="50" MUR="1.0"  MUF="1.0"  PDF="247005" > PDF=247000 MemberID=5 </weight>
<weight id="51" MUR="1.0"  MUF="1.0"  PDF="247006" > PDF=247000 MemberID=6 </weight>
<weight id="52" MUR="1.0"  MUF="1.0"  PDF="247007" > PDF=247000 MemberID=7 </weight>
<weight id="53" MUR="1.0"  MUF="1.0"  PDF="247008" > PDF=247000 MemberID=8 </weight>
<weight id="54" MUR="1.0"  MUF="1.0"  PDF="247009" > PDF=247000 MemberID=9 </weight>
<weight id="55" MUR="1.0"  MUF="1.0"  PDF="247010" > PDF=247000 MemberID=10 </weight>
<weight id="56" MUR="1.0"  MUF="1.0"  PDF="247011" > PDF=247000 MemberID=11 </weight>
<weight id="57" MUR="1.0"  MUF="1.0"  PDF="247012" > PDF=247000 MemberID=12 </weight>
<weight id="58" MUR="1.0"  MUF="1.0"  PDF="247013" > PDF=247000 MemberID=13 </weight>
<weight id="59" MUR="1.0"  MUF="1.0"  PDF="247014" > PDF=247000 MemberID=14 </weight>
<weight id="60" MUR="1.0"  MUF="1.0"  PDF="247015" > PDF=247000 MemberID=15 </weight>
<weight id="61" MUR="1.0"  MUF="1.0"  PDF="247016" > PDF=247000 MemberID=16 </weight>
<weight id="62" MUR="1.0"  MUF="1.0"  PDF="247017" > PDF=247000 MemberID=17 </weight>
<weight id="63" MUR="1.0"  MUF="1.0"  PDF="247018" > PDF=247000 MemberID=18 </weight>
<weight id="64" MUR="1.0"  MUF="1.0"  PDF="247019" > PDF=247000 MemberID=19 </weight>
<weight id="65" MUR="1.0"  MUF="1.0"  PDF="247020" > PDF=247000 MemberID=20 </weight>
<weight id="66" MUR="1.0"  MUF="1.0"  PDF="247021" > PDF=247000 MemberID=21 </weight>
<weight id="67" MUR="1.0"  MUF="1.0"  PDF="247022" > PDF=247000 MemberID=22 </weight>
<weight id="68" MUR="1.0"  MUF="1.0"  PDF="247023" > PDF=247000 MemberID=23 </weight>
<weight id="69" MUR="1.0"  MUF="1.0"  PDF="247024" > PDF=247000 MemberID=24 </weight>
<weight id="70" MUR="1.0"  MUF="1.0"  PDF="247025" > PDF=247000 MemberID=25 </weight>
<weight id="71" MUR="1.0"  MUF="1.0"  PDF="247026" > PDF=247000 MemberID=26 </weight>
<weight id="72" MUR="1.0"  MUF="1.0"  PDF="247027" > PDF=247000 MemberID=27 </weight>
<weight id="73" MUR="1.0"  MUF="1.0"  PDF="247028" > PDF=247000 MemberID=28 </weight>
<weight id="74" MUR="1.0"  MUF="1.0"  PDF="247029" > PDF=247000 MemberID=29 </weight>
<weight id="75" MUR="1.0"  MUF="1.0"  PDF="247030" > PDF=247000 MemberID=30 </weight>
<weight id="76" MUR="1.0"  MUF="1.0"  PDF="247031" > PDF=247000 MemberID=31 </weight>
<weight id="77" MUR="1.0"  MUF="1.0"  PDF="247032" > PDF=247000 MemberID=32 </weight>
<weight id="78" MUR="1.0"  MUF="1.0"  PDF="247033" > PDF=247000 MemberID=33 </weight>
<weight id="79" MUR="1.0"  MUF="1.0"  PDF="247034" > PDF=247000 MemberID=34 </weight>
<weight id="80" MUR="1.0"  MUF="1.0"  PDF="247035" > PDF=247000 MemberID=35 </weight>
<weight id="81" MUR="1.0"  MUF="1.0"  PDF="247036" > PDF=247000 MemberID=36 </weight>
<weight id="82" MUR="1.0"  MUF="1.0"  PDF="247037" > PDF=247000 MemberID=37 </weight>
<weight id="83" MUR="1.0"  MUF="1.0"  PDF="247038" > PDF=247000 MemberID=38 </weight>
<weight id="84" MUR="1.0"  MUF="1.0"  PDF="247039" > PDF=247000 MemberID=39 </weight>
<weight id="85" MUR="1.0"  MUF="1.0"  PDF="247040" > PDF=247000 MemberID=40 </weight>
<weight id="86" MUR="1.0"  MUF="1.0"  PDF="247041" > PDF=247000 MemberID=41 </weight>
<weight id="87" MUR="1.0"  MUF="1.0"  PDF="247042" > PDF=247000 MemberID=42 </weight>
<weight id="88" MUR="1.0"  MUF="1.0"  PDF="247043" > PDF=247000 MemberID=43 </weight>
<weight id="89" MUR="1.0"  MUF="1.0"  PDF="247044" > PDF=247000 MemberID=44 </weight>
<weight id="90" MUR="1.0"  MUF="1.0"  PDF="247045" > PDF=247000 MemberID=45 </weight>
<weight id="91" MUR="1.0"  MUF="1.0"  PDF="247046" > PDF=247000 MemberID=46 </weight>
<weight id="92" MUR="1.0"  MUF="1.0"  PDF="247047" > PDF=247000 MemberID=47 </weight>
<weight id="93" MUR="1.0"  MUF="1.0"  PDF="247048" > PDF=247000 MemberID=48 </weight>
<weight id="94" MUR="1.0"  MUF="1.0"  PDF="247049" > PDF=247000 MemberID=49 </weight>
<weight id="95" MUR="1.0"  MUF="1.0"  PDF="247050" > PDF=247000 MemberID=50 </weight>
<weight id="96" MUR="1.0"  MUF="1.0"  PDF="247051" > PDF=247000 MemberID=51 </weight>
<weight id="97" MUR="1.0"  MUF="1.0"  PDF="247052" > PDF=247000 MemberID=52 </weight>
<weight id="98" MUR="1.0"  MUF="1.0"  PDF="247053" > PDF=247000 MemberID=53 </weight>
<weight id="99" MUR="1.0"  MUF="1.0"  PDF="247054" > PDF=247000 MemberID=54 </weight>
<weight id="100" MUR="1.0"  MUF="1.0"  PDF="247055" > PDF=247000 MemberID=55 </weight>
<weight id="101" MUR="1.0"  MUF="1.0"  PDF="247056" > PDF=247000 MemberID=56 </weight>
<weight id="102" MUR="1.0"  MUF="1.0"  PDF="247057" > PDF=247000 MemberID=57 </weight>
<weight id="103" MUR="1.0"  MUF="1.0"  PDF="247058" > PDF=247000 MemberID=58 </weight>
<weight id="104" MUR="1.0"  MUF="1.0"  PDF="247059" > PDF=247000 MemberID=59 </weight>
<weight id="105" MUR="1.0"  MUF="1.0"  PDF="247060" > PDF=247000 MemberID=60 </weight>
<weight id="106" MUR="1.0"  MUF="1.0"  PDF="247061" > PDF=247000 MemberID=61 </weight>
<weight id="107" MUR="1.0"  MUF="1.0"  PDF="247062" > PDF=247000 MemberID=62 </weight>
<weight id="108" MUR="1.0"  MUF="1.0"  PDF="247063" > PDF=247000 MemberID=63 </weight>
<weight id="109" MUR="1.0"  MUF="1.0"  PDF="247064" > PDF=247000 MemberID=64 </weight>
<weight id="110" MUR="1.0"  MUF="1.0"  PDF="247065" > PDF=247000 MemberID=65 </weight>
<weight id="111" MUR="1.0"  MUF="1.0"  PDF="247066" > PDF=247000 MemberID=66 </weight>
<weight id="112" MUR="1.0"  MUF="1.0"  PDF="247067" > PDF=247000 MemberID=67 </weight>
<weight id="113" MUR="1.0"  MUF="1.0"  PDF="247068" > PDF=247000 MemberID=68 </weight>
<weight id="114" MUR="1.0"  MUF="1.0"  PDF="247069" > PDF=247000 MemberID=69 </weight>
<weight id="115" MUR="1.0"  MUF="1.0"  PDF="247070" > PDF=247000 MemberID=70 </weight>
<weight id="116" MUR="1.0"  MUF="1.0"  PDF="247071" > PDF=247000 MemberID=71 </weight>
<weight id="117" MUR="1.0"  MUF="1.0"  PDF="247072" > PDF=247000 MemberID=72 </weight>
<weight id="118" MUR="1.0"  MUF="1.0"  PDF="247073" > PDF=247000 MemberID=73 </weight>
<weight id="119" MUR="1.0"  MUF="1.0"  PDF="247074" > PDF=247000 MemberID=74 </weight>
<weight id="120" MUR="1.0"  MUF="1.0"  PDF="247075" > PDF=247000 MemberID=75 </weight>
<weight id="121" MUR="1.0"  MUF="1.0"  PDF="247076" > PDF=247000 MemberID=76 </weight>
<weight id="122" MUR="1.0"  MUF="1.0"  PDF="247077" > PDF=247000 MemberID=77 </weight>
<weight id="123" MUR="1.0"  MUF="1.0"  PDF="247078" > PDF=247000 MemberID=78 </weight>
<weight id="124" MUR="1.0"  MUF="1.0"  PDF="247079" > PDF=247000 MemberID=79 </weight>
<weight id="125" MUR="1.0"  MUF="1.0"  PDF="247080" > PDF=247000 MemberID=80 </weight>
<weight id="126" MUR="1.0"  MUF="1.0"  PDF="247081" > PDF=247000 MemberID=81 </weight>
<weight id="127" MUR="1.0"  MUF="1.0"  PDF="247082" > PDF=247000 MemberID=82 </weight>
<weight id="128" MUR="1.0"  MUF="1.0"  PDF="247083" > PDF=247000 MemberID=83 </weight>
<weight id="129" MUR="1.0"  MUF="1.0"  PDF="247084" > PDF=247000 MemberID=84 </weight>
<weight id="130" MUR="1.0"  MUF="1.0"  PDF="247085" > PDF=247000 MemberID=85 </weight>
<weight id="131" MUR="1.0"  MUF="1.0"  PDF="247086" > PDF=247000 MemberID=86 </weight>
<weight id="132" MUR="1.0"  MUF="1.0"  PDF="247087" > PDF=247000 MemberID=87 </weight>
<weight id="133" MUR="1.0"  MUF="1.0"  PDF="247088" > PDF=247000 MemberID=88 </weight>
<weight id="134" MUR="1.0"  MUF="1.0"  PDF="247089" > PDF=247000 MemberID=89 </weight>
<weight id="135" MUR="1.0"  MUF="1.0"  PDF="247090" > PDF=247000 MemberID=90 </weight>
<weight id="136" MUR="1.0"  MUF="1.0"  PDF="247091" > PDF=247000 MemberID=91 </weight>
<weight id="137" MUR="1.0"  MUF="1.0"  PDF="247092" > PDF=247000 MemberID=92 </weight>
<weight id="138" MUR="1.0"  MUF="1.0"  PDF="247093" > PDF=247000 MemberID=93 </weight>
<weight id="139" MUR="1.0"  MUF="1.0"  PDF="247094" > PDF=247000 MemberID=94 </weight>
<weight id="140" MUR="1.0"  MUF="1.0"  PDF="247095" > PDF=247000 MemberID=95 </weight>
<weight id="141" MUR="1.0"  MUF="1.0"  PDF="247096" > PDF=247000 MemberID=96 </weight>
<weight id="142" MUR="1.0"  MUF="1.0"  PDF="247097" > PDF=247000 MemberID=97 </weight>
<weight id="143" MUR="1.0"  MUF="1.0"  PDF="247098" > PDF=247000 MemberID=98 </weight>
<weight id="144" MUR="1.0"  MUF="1.0"  PDF="247099" > PDF=247000 MemberID=99 </weight>
<weight id="145" MUR="1.0"  MUF="1.0"  PDF="247100" > PDF=247000 MemberID=100 </weight>
</weightgroup>
</initrwgt>
<MGGenerationInfo>
#  Number of Events        :       100
#  Integrated weight (pb)  :       17.556
</MGGenerationInfo>
</header>
<init>
2212 2212 6.500000e+03 6.500000e+03 0 0 247000 247000 -4 1
1.755600e+01 7.009600e-02 1.755600e+01 1
<generator name='MadGraph5_aMC@NLO' version='2.7.0'>please cite 1405.0301 </generator>
</init>
<event>
 3      1 +1.7556000e+01 1.25000000e+02 7.54677100e-03 1.23506900e-01
       21 -1    0    0  502  501 +0.0000000000e+00 +0.0000000000e+00 +1.3560290866e+03 1.3560290866e+03 0.0000000000e+00 0.0000e+00 -1.0000e+00
       21 -1    0    0  501  502 -0.0000000000e+00 -0.0000000000e+00 -2.8806535484e+00 2.8806535484e+00 0.0000000000e+00 0.0000e+00 -1.0000e+00
       25  1    1    2    0    0 +0.0000000000e+00 +0.0000000000e+00 +1.3531484330e+03 1.3589097401e+03 1.2500000000e+02 0.0000e+00 0.0000e+00
<mgrwt>
<rscale>  0 0.12500000E+03</rscale>
<asrwt>0</asrwt>
<pdfrwt beam="1">  1       21 0.20861935E+00 0.12500000E+03</pdfrwt>
<pdfrwt beam="2">  1       21 0.44317855E-03 0.12500000E+03</pdfrwt>
<totfact> 0.16226708E+06</totfact>
</mgrwt>
<rwgt>
<wgt id='1'> +1.7813391e+01 </wgt>
<wgt id='2'> +0.0000000e+00 </wgt>
<wgt id='3'> +1.7813391e+01 </wgt>
<wgt id='4'> +1.7719774e+01 </wgt>
<wgt id='5'> +1.7813391e+01 </wgt>
<wgt id='6'> +1.7556000e+01 </wgt>
<wgt id='7'> +0.0000000e+00 </wgt>
<wgt id='8'> +1.7556000e+01 </wgt>
<wgt id='9'> +1.7813391e+01 </wgt>
<wgt id='10'> +1.7556000e+01 </wgt>
<wgt id='11'> +1.6952263e+01 </wgt>
<wgt id='12'> +0.0000000e+00 </wgt>
<wgt id='13'> +1.6952263e+01 </wgt>
<wgt id='14'> +1.7556000e+01 </wgt>
<wgt id='15'> +1.6952263e+01 </wgt>
<wgt id='16'> +1.7813391e+01 </wgt>
<wgt id='17'> +0.0000000e+00 </wgt>
<wgt id='18'> +1.7813391e+01 </wgt>
<wgt id='19'> +1.7719774e+01 </wgt>
<wgt id='20'> +1.7813391e+01 </wgt>
<wgt id='21'> +0.0000000e+00 </wgt>
<wgt id='22'> +1.7556000e+01 </wgt>
<wgt id='23'> +1.7813391e+01 </wgt>
<wgt id='24'> +1.7556000e+01 </wgt>
<wgt id='25'> +1.6952263e+01 </wgt>
<wgt id='26'> +0.0000000e+00 </wgt>
<wgt id='27'> +1.6952263e+01 </wgt>
<wgt id='28'> +1.7556000e+01 </wgt>
<wgt id='29'> +1.6952263e+01 </wgt>
<wgt id='30'> +1.7813391e+01 </wgt>
<wgt id='31'> +0.0000000e+00 </wgt>
<wgt id='32'> +1.7813391e+01 </wgt>
<wgt id='33'> +1.7719774e+01 </wgt>
<wgt id='34'> +1.7813391e+01 </wgt>
<wgt id='35'> +1.7556000e+01 </wgt>
<wgt id='36'> +0.0000000e+00 </wgt>
<wgt id='37'> +1.7556000e+01 </wgt>
<wgt id='38'> +1.7813391e+01 </wgt>
<wgt id='39'> +1.7556000e+01 </wgt>
<wgt id='40'> +1.6952263e+01 </wgt>
<wgt id='41'> +0.0000000e+00 </wgt>
<wgt id='42'> +1.6952263e+01 </wgt>
<wgt id='43'> +1.7556000e+01 </wgt>
<wgt id='44'> +1.6952263e+01 </wgt>
<wgt id='45'> +1.7556000e+01 </wgt>
<wgt id='46'> +1.8114688e+01 </wgt>
<wgt id='47'> +1.7834983e+01 </wgt>
<wgt id='48'> +1.7626013e+01 </wgt>
<wgt id='49'> +1.6428939e+01 </wgt>
<wgt id='50'> +1.9481208e+01 </wgt>
<wgt id='51'> +1.6601950e+01 </wgt>
<wgt id='52'> +1.6493494e+01 </wgt>
<wgt id='53'> +1.7328987e+01 </wgt>
<wgt id='54'> +1.8623452e+01 </wgt>
<wgt id='55'> +2.0567020e+01 </wgt>
<wgt id='56'> +1.7196287e+01 </wgt>
<wgt id='57'> +1.8789204e+01 </wgt>
<wgt id='58'> +1.5847892e+01 </wgt>
<wgt id='59'> +1.9396925e+01 </wgt>
<wgt id='60'> +1.8309522e+01 </wgt>
<wgt id='61'> +1.5108274e+01 </wgt>
<wgt id='62'> +1.6273671e+01 </wgt>
<wgt id='63'> +1.8658589e+01 </wgt>
<wgt id='64'> +1.7761788e+01 </wgt>
<wgt id='65'> +1.5305778e+01 </wgt>
<wgt id='66'> +1.7723159e+01 </wgt>
<wgt id='67'> +1.7408430e+01 </wgt>
<wgt id='68'> +2.0870898e+01 </wgt>
<wgt id='69'> +1.9154825e+01 </wgt>
<wgt id='70'> +1.9056255e+01 </wgt>
<wgt id='71'> +1.5820378e+01 </wgt>
<wgt id='72'> +1.5961966e+01 </wgt>
<wgt id='73'> +1.6114807e+01 </wgt>
<wgt id='74'> +2.0476332e+01 </wgt>
<wgt id='75'> +1.9595635e+01 </wgt>
<wgt id='76'> +1.8090592e+01 </wgt>
<wgt id='77'> +1.6874800e+01 </wgt>
<wgt id='78'> +1.4930270e+01 </wgt>
<wgt id='79'> +1.9551470e+01 </wgt>
<wgt id='80'> +1.5274173e+01 </wgt>
<wgt id='81'> +1.8130557e+01 </wgt>
<wgt id='82'> +1.7101299e+01 </wgt>
<wgt id='83'> +1.7021677e+01 </wgt>
<wgt id='84'> +1.6167086e+01 </wgt>
<wgt id='85'> +1.5712127e+01 </wgt>
<wgt id='86'> +1.8621083e+01 </wgt>
<wgt id='87'> +1.7420751e+01 </wgt>
<wgt id='88'> +1.6570824e+01 </wgt>
<wgt id='89'> +1.5014142e+01 </wgt>
<wgt id='90'> +1.6284365e+01 </wgt>
<wgt id='91'> +1.4706400e+01 </wgt>
<wgt id='92'> +1.6542288e+01 </wgt>
<wgt id='93'> +1.8181981e+01 </wgt>
<wgt id='94'> +1.6087475e+01 </wgt>
<wgt id='95'> +1.8558464e+01 </wgt>
<wgt id='96'> +1.8215643e+01 </wgt>
<wgt id='97'> +1.5686569e+01 </wgt>
<wgt id='98'> +1.9308375e+01 </wgt>
<wgt id='99'> +1.4967145e+01 </wgt>
<wgt id='100'> +1.3098627e+01 </wgt>
<wgt id='101'> +2.0483377e+01 </wgt>
<wgt id='102'> +2.0242595e+01 </wgt>
<wgt id='103'> +1.6405596e+01 </wgt>
<wgt id='104'> +1.8620452e+01 </wgt>
<wgt id='105'> +1.7536627e+01 </wgt>
<wgt id='106'> +1.7316443e+01 </wgt>
<wgt id='107'> +1.6966546e+01 </wgt>
<wgt id='108'> +1.6597913e+01 </wgt>
<wgt id='109'> +1.7714969e+01 </wgt>
<wgt id='110'> +1.6164885e+01 </wgt>
<wgt id='111'> +1.6967689e+01 </wgt>
<wgt id='112'> +1.8537820e+01 </wgt>
<wgt id='113'> +1.9283623e+01 </wgt>
<wgt id='114'> +1.8209155e+01 </wgt>
<wgt id='115'> +1.5792090e+01 </wgt>
<wgt id='116'> +1.9490254e+01 </wgt>
<wgt id='117'> +1.7090289e+01 </wgt>
<wgt id='118'> +1.8332295e+01 </wgt>
<wgt id='119'> +1.9689866e+01 </wgt>
<wgt id='120'> +1.7499972e+01 </wgt>
<wgt id='121'> +1.7471829e+01 </wgt>
<wgt id='122'> +1.7212413e+01 </wgt>
<wgt id='123'> +1.6566518e+01 </wgt>
<wgt id='124'> +1.9499715e+01 </wgt>
<wgt id='125'> +2.2103239e+01 </wgt>
<wgt id='126'> +1.7004442e+01 </wgt>
<wgt id='127'> +1.6766043e+01 </wgt>
<wgt id='128'> +1.7026579e+01 </wgt>
<wgt id='129'> +1.7144049e+01 </wgt>
<wgt id='130'> +1.6789751e+01 </wgt>
<wgt id='131'> +1.5658703e+01 </wgt>
<wgt id='132'> +1.9352458e+01 </wgt>
<wgt id='133'> +1.9598566e+01 </wgt>
<wgt id='134'> +1.8750660e+01 </wgt>
<wgt id='135'> +1.6759438e+01 </wgt>
<wgt id='136'> +2.1331220e+01 </wgt>
<wgt id='137'> +1.8741625e+01 </wgt>
<wgt id='138'> +1.8700615e+01 </wgt>
<wgt id='139'> +1.8389665e+01 </wgt>
<wgt id='140'> +1.6867313e+01 </wgt>
<wgt id='141'> +1.9850107e+01 </wgt>
<wgt id='142'> +1.1920012e+01 </wgt>
<wgt id='143'> +1.7956832e+01 </wgt>
<wgt id='144'> +1.5733920e+01 </wgt>
<wgt id='145'> +1.5831078e+01 </wgt>
</rwgt>
</event>
<event>
 3      1 +1.7556000e+01 1.25000000e+02 7.54677100e-03 1.23506900e-01
       21 -1    0    0  502  501 +0.0000000000e+00 +0.0000000000e+00 +1.3215225636e+02 1.3215225636e+02 0.0000000000e+00 0.0000e+00 -1.0000e+00
       21 -1    0    0  501  502 -0.0000000000e+00 -0.0000000000e+00 -2.9558708324e+01 2.9558708324e+01 0.0000000000e+00 0.0000e+00 -1.0000e+00
       25  1    1    2    0    0 +0.0000000000e+00 +0.0000000000e+00 +1.0259354803e+02 1.6171096468e+02 1.2500000000e+02 0.0000e+00 0.0000e+00
<mgrwt>
<rscale>  0 0.12500000E+03</rscale>
<asrwt>0</asrwt>
<pdfrwt beam="1">  1       21 0.20331116E-01 0.12500000E+03</pdfrwt>
<pdfrwt beam="2">  1       21 0.45474937E-02 0.12500000E+03</pdfrwt>
<totfact> 0.69311037E+06</totfact>
</mgrwt>
<rwgt>
<wgt id='1'> +1.6685738e+01 </wgt>
<wgt id='2'> +0.0000000e+00 </wgt>
<wgt id='3'> +1.6685738e+01 </wgt>
<wgt id='4'> +1.5433280e+01 </wgt>
<wgt id='5'> +1.6685738e+01 </wgt>
<wgt id='6'> +1.7556000e+01 </wgt>
<wgt id='7'> +0.0000000e+00 </wgt>
<wgt id='8'> +1.7556000e+01 </wgt>
<wgt id='9'> +1.6685738e+01 </wgt>
<wgt id='10'> +1.7556000e+01 </wgt>
<wgt id='11'> +1.7983200e+01 </wgt>
<wgt id='12'> +0.0000000e+00 </wgt>
<wgt id='13'> +1.7983200e+01 </wgt>
<wgt id='14'> +1.7556000e+01 </wgt>
<wgt id='15'> +1.7983200e+01 </wgt>
<wgt id='16'> +1.6685738e+01 </wgt>
<wgt id='17'> +0.0000000e+00 </wgt>
<wgt id='18'> +1.6685738e+01 </wgt>
<wgt id='19'> +1.5433280e+01 </wgt>
<wgt id='20'> +1.6685738e+01 </wgt>
<wgt id='21'> +0.0000000e+00 </wgt>
<wgt id='22'> +1.7556000e+01 </wgt>
<wgt id='23'> +1.6685738e+01 </wgt>
<wgt id='24'> +1.7556000e+01 </wgt>
<wgt id='25'> +1.7983200e+01 </wgt>
<wgt id='26'> +0.0000000e+00 </wgt>
<wgt id='27'> +1.7983200e+01 </wgt>
<wgt id='28'> +1.7556000e+01 </wgt>
<wgt id='29'> +1.7983200e+01 </wgt>
<wgt id='30'> +1.6685738e+01 </wgt>
<wgt id='31'> +0.0000000e+00 </wgt>
<wgt id='32'> +1.6685738e+01 </wgt>
<wgt id='33'> +1.5433280e+01 </wgt>
<wgt id='34'> +1.6685738e+01 </wgt>
<wgt id='35'> +1.7556000e+01 </wgt>
<wgt id='36'> +0.0000000e+00 </wgt>
<wgt id='37'> +1.7556000e+01 </wgt>
<wgt id='38'> +1.6685738e+01 </wgt>
<wgt id='39'> +1.7556000e+01 </wgt>
<wgt id='40'> +1.7983200e+01 </wgt>
<wgt id='41'> +0.0000000e+00 </wgt>
<wgt id='42'> +1.7983200e+01 </wgt>
<wgt id='43'> +1.7556000e+01 </wgt>
<wgt id='44'> +1.7983200e+01 </wgt>
<wgt id='45'> +1.7556000e+01 </wgt>
<wgt id='46'> +1.7042279e+01 </wgt>
<wgt id='47'> +1.7527772e+01 </wgt>
<wgt id='48'> +1.7199389e+01 </wgt>
<wgt id='49'> +1.7602351e+01 </wgt>
<wgt id='50'> +1.8012223e+01 </wgt>
<wgt id='51'> +1.7290006e+01 </wgt>
<wgt id='52'> +1.7403585e+01 </wgt>
<wgt id='53'> +1.7958110e+01 </wgt>
<wgt id='54'> +1.7639348e+01 </wgt>
<wgt id='55'> +1.6559715e+01 </wgt>
<wgt id='56'> +1.7301070e+01 </wgt>
<wgt id='57'> +1.7359718e+01 </wgt>
<wgt id='58'> +1.8321113e+01 </wgt>
<wgt id='59'> +1.7044131e+01 </wgt>
<wgt id='60'> +1.6891512e+01 </wgt>
<wgt id='61'> +1.8066078e+01 </wgt>
<wgt id='62'> +1.7253354e+01 </wgt>
<wgt id='63'> +1.7613964e+01 </wgt>
<wgt id='64'> +1.7989561e+01 </wgt>
<wgt id='65'> +1.9307510e+01 </wgt>
<wgt id='66'> +1.7104652e+01 </wgt>
<wgt id='67'> +1.7668183e+01 </wgt>
<wgt id='68'> +1.7971381e+01 </wgt>
<wgt id='69'> +1.6338678e+01 </wgt>
<wgt id='70'> +1.7512719e+01 </wgt>
<wgt id='71'> +1.7805430e+01 </wgt>
<wgt id='72'> +1.8507836e+01 </wgt>
<wgt id='73'> +1.7751640e+01 </wgt>
<wgt id='74'> +1.7416764e+01 </wgt>
<wgt id='75'> +1.7631747e+01 </wgt>
<wgt id='76'> +1.7391339e+01 </wgt>
<wgt id='77'> +1.6825159e+01 </wgt>
<wgt id='78'> +1.8067261e+01 </wgt>
<wgt id='79'> +1.6837625e+01 </wgt>
<wgt id='80'> +1.7623564e+01 </wgt>
<wgt id='81'> +1.7591558e+01 </wgt>
<wgt id='82'> +1.8134372e+01 </wgt>
<wgt id='83'> +1.7294709e+01 </wgt>
<wgt id='84'> +1.8225595e+01 </wgt>
<wgt id='85'> +1.8110243e+01 </wgt>
<wgt id='86'> +1.7064224e+01 </wgt>
<wgt id='87'> +1.7387736e+01 </wgt>
<wgt id='88'> +1.7351553e+01 </wgt>
<wgt id='89'> +1.7655030e+01 </wgt>
<wgt id='90'> +1.7624797e+01 </wgt>
<wgt id='91'> +1.8459690e+01 </wgt>
<wgt id='92'> +1.7751444e+01 </wgt>
<wgt id='93'> +1.7067489e+01 </wgt>
<wgt id='94'> +1.7909940e+01 </wgt>
<wgt id='95'> +1.7419159e+01 </wgt>
<wgt id='96'> +1.7682429e+01 </wgt>
<wgt id='97'> +1.8019028e+01 </wgt>
<wgt id='98'> +1.6833505e+01 </wgt>
<wgt id='99'> +1.7467302e+01 </wgt>
<wgt id='100'> +1.8489861e+01 </wgt>
<wgt id='101'> +1.7259152e+01 </wgt>
<wgt id='102'> +1.6310216e+01 </wgt>
<wgt id='103'> +1.8194961e+01 </wgt>
<wgt id='104'> +1.7095289e+01 </wgt>
<wgt id='105'> +1.8569728e+01 </wgt>
<wgt id='106'> +1.7594752e+01 </wgt>
<wgt id='107'> +1.8414169e+01 </wgt>
<wgt id='108'> +1.7137074e+01 </wgt>
<wgt id='109'> +1.7441752e+01 </wgt>
<wgt id='110'> +1.7887860e+01 </wgt>
<wgt id='111'> +1.7529304e+01 </wgt>
<wgt id='112'> +1.7467619e+01 </wgt>
<wgt id='113'> +1.7043950e+01 </wgt>
<wgt id='114'> +1.8456813e+01 </wgt>
<wgt id='115'> +1.8172809e+01 </wgt>
<wgt id='116'> +1.6700200e+01 </wgt>
<wgt id='117'> +1.7907909e+01 </wgt>
<wgt id='118'> +1.7162881e+01 </wgt>
<wgt id='119'> +1.7456629e+01 </wgt>
<wgt id='120'> +1.7841589e+01 </wgt>
<wgt id='121'> +1.7653462e+01 </wgt>
<wgt id='122'> +1.7524240e+01 </wgt>
<wgt id='123'> +1.7347921e+01 </wgt>
<wgt id='124'> +1.7547786e+01 </wgt>
<wgt id='125'> +1.7745225e+01 </wgt>
<wgt id='126'> +1.7664628e+01 </wgt>
<wgt id='127'> +1.7634093e+01 </wgt>
<wgt id='128'> +1.6900953e+01 </wgt>
<wgt id='129'> +1.8985543e+01 </wgt>
<wgt id='130'> +1.7158886e+01 </wgt>
<wgt id='131'> +1.8468918e+01 </wgt>
<wgt id='132'> +1.7154215e+01 </wgt>
<wgt id='133'> +1.6931007e+01 </wgt>
<wgt id='134'> +1.6814356e+01 </wgt>
<wgt id='135'> +1.7899335e+01 </wgt>
<wgt id='136'> +1.6872408e+01 </wgt>
<wgt id='137'> +1.6437747e+01 </wgt>
<wgt id='138'> +1.5435896e+01 </wgt>
<wgt id='139'> +1.7594933e+01 </wgt>
<wgt id='140'> +1.8657706e+01 </wgt>
<wgt id='141'> +1.7282117e+01 </wgt>
<wgt id='142'> +1.8329012e+01 </wgt>
<wgt id='143'> +1.7333927e+01 </wgt>
<wgt id='144'> +1.8090602e+01 </wgt>
<wgt id='145'> +1.7497615e+01 </wgt>
</rwgt>
</event>
<event>
 3      1 +1.7556000e+01 1.25000000e+02 7.54677100e-03 1.23506900e-01
       21 -1    0    0  502  501 +0.0000000000e+00 +0.0000000000e+00 +5.7684297039e+02 5.7684297039e+02 0.0000000000e+00 0.0000e+00 -1.0000e+00
       21 -1    0    0  501  502 -0.0000000000e+00 -0.0000000000e+00 -6.7717736030e+00 6.7717736030e+00 0.0000000000e+00 0.0000e+00 -1.0000e+00
       25  1    1    2    0    0 +0.0000000000e+00 +0.0000000000e+00 +5.7007119679e+02 5.8361474400e+02 1.2500000000e+02 0.0000e+00 0.0000e+00
<mgrwt>
<rscale>  0 0.12500000E+03</rscale>
<asrwt>0</asrwt>
<pdfrwt beam="1">  1       21 0.88745034E-01 0.12500000E+03</pdfrwt>
<pdfrwt beam="2">  1       21 0.10418118E-02 0.12500000E+03</pdfrwt>
<totfact> 0.37844285E+06</totfact>
</mgrwt>
<rwgt>
<wgt id='1'> +1.7033816e+01 </wgt>
<wgt id='2'> +0.0000000e+00 </wgt>
<wgt id='3'> +1.7033816e+01 </wgt>
<wgt id='4'> +1.6128062e+01 </wgt>
<wgt id='5'> +1.7033816e+01 </wgt>
<wgt id='6'> +1.7556000e+01 </wgt>
<wgt id='7'> +0.0000000e+00 </wgt>
<wgt id='8'> +1.7556000e+01 </wgt>
<wgt id='9'> +1.7033816e+01 </wgt>
<wgt id='10'> +1.7556000e+01 </wgt>
<wgt id='11'> +1.7653895e+01 </wgt>
<wgt id='12'> +0.0000000e+00 </wgt>
<wgt id='13'> +1.7653895e+01 </wgt>
<wgt id='14'> +1.7556000e+01 </wgt>
<wgt id='15'> +1.7653895e+01 </wgt>
<wgt id='16'> +1.7033816e+01 </wgt>
<wgt id='17'> +0.0000000e+00 </wgt>
<wgt id='18'> +1.7033816e+01 </wgt>
<wgt id='19'> +1.6128062e+01 </wgt>
<wgt id='20'> +1.7033816e+01 </wgt>
<wgt id='21'> +0.0000000e+00 </wgt>
<wgt id='22'> +1.7556000e+01 </wgt>
<wgt id='23'> +1.7033816e+01 </wgt>
<wgt id='24'> +1.7556000e+01 </wgt>
<wgt id='25'> +1.7653895e+01 </wgt>
<wgt id='26'> +0.0000000e+00 </wgt>
<wgt id='27'> +1.7653895e+01 </wgt>
<wgt id='28'> +1.7556000e+01 </wgt>
<wgt id='29'> +1.7653895e+01 </wgt>
<wgt id='30'> +1.7033816e+01 </wgt>
<wgt id='31'> +0.0000000e+00 </wgt>
<wgt id='32'> +1.7033816e+01 </wgt>
<wgt id='33'> +1.6128062e+01 </wgt>
<wgt id='34'> +1.7033816e+01 </wgt>
<wgt id='35'> +1.7556000e+01 </wgt>
<wgt id='36'> +0.0000000e+00 </wgt>
<wgt id='37'> +1.7556000e+01 </wgt>
<wgt id='38'> +1.7033816e+01 </wgt>
<wgt id='39'> +1.7556000e+01 </wgt>
<wgt id='40'> +1.7653895e+01 </wgt>
<wgt id='41'> +0.0000000e+00 </wgt>
<wgt id='42'> +1.7653895e+01 </wgt>
<wgt id='43'> +1.7556000e+01 </wgt>
<wgt id='44'> +1.7653895e+01 </wgt>
<wgt id='45'> +1.7556000e+01 </wgt>
<wgt id='46'> +1.7826874e+01 </wgt>
<wgt id='47'> +1.7642638e+01 </wgt>
<wgt id='48'> +1.7662430e+01 </wgt>
<wgt id='49'> +1.7645215e+01 </wgt>
<wgt id='50'> +1.9304174e+01 </wgt>
<wgt id='51'> +1.7319373e+01 </wgt>
<wgt id='52'> +1.7688824e+01 </wgt>
<wgt id='53'> +1.7151752e+01 </wgt>
<wgt id='54'> +1.7703911e+01 </wgt>
<wgt id='55'> +1.6991028e+01 </wgt>
<wgt id='56'> +1.6585829e+01 </wgt>
<wgt id='57'> +1.7579815e+01 </wgt>
<wgt id='58'> +1.7603335e+01 </wgt>
<wgt id='59'> +1.8143314e+01 </wgt>
<wgt id='60'> +1.8140087e+01 </wgt>
<wgt id='61'> +1.5925259e+01 </wgt>
<wgt id='62'> +1.7438721e+01 </wgt>
<wgt id='63'> +1.7707256e+01 </wgt>
<wgt id='64'> +1.7471538e+01 </wgt>
<wgt id='65'> +1.8537344e+01 </wgt>
<wgt id='66'> +1.7177132e+01 </wgt>
<wgt id='67'> +1.7496705e+01 </wgt>
<wgt id='68'> +1.8622440e+01 </wgt>
<wgt id='69'> +1.7176125e+01 </wgt>
<wgt id='70'> +1.7315974e+01 </wgt>
<wgt id='71'> +1.7485848e+01 </wgt>
<wgt id='72'> +1.7280616e+01 </wgt>
<wgt id='73'> +1.7485462e+01 </wgt>
<wgt id='74'> +1.8333178e+01 </wgt>
<wgt id='75'> +1.7939926e+01 </wgt>
<wgt id='76'> +1.7284879e+01 </wgt>
<wgt id='77'> +1.7488513e+01 </wgt>
<wgt id='78'> +1.7038422e+01 </wgt>
<wgt id='79'> +1.7644964e+01 </wgt>
<wgt id='80'> +1.7108779e+01 </wgt>
<wgt id='81'> +1.7232603e+01 </wgt>
<wgt id='82'> +1.7377507e+01 </wgt>
<wgt id='83'> +1.7392424e+01 </wgt>
<wgt id='84'> +1.7978036e+01 </wgt>
<wgt id='85'> +1.7940520e+01 </wgt>
<wgt id='86'> +1.7542135e+01 </wgt>
<wgt id='87'> +1.7739419e+01 </wgt>
<wgt id='88'> +1.7179793e+01 </wgt>
<wgt id='89'> +1.8100832e+01 </wgt>
<wgt id='90'> +1.8004386e+01 </wgt>
<wgt id='91'> +1.7831308e+01 </wgt>
<wgt id='92'> +1.6415981e+01 </wgt>
<wgt id='93'> +1.7711464e+01 </wgt>
<wgt id='94'> +1.7303151e+01 </wgt>
<wgt id='95'> +1.7363707e+01 </wgt>
<wgt id='96'> +1.8318094e+01 </wgt>
<wgt id='97'> +1.7410559e+01 </wgt>
<wgt id='98'> +1.7181523e+01 </wgt>
<wgt id='99'> +1.7273810e+01 </wgt>
<wgt id='100'> +1.6937721e+01 </wgt>
<wgt id='101'> +1.8842656e+01 </wgt>
<wgt id='102'> +1.7880892e+01 </wgt>
<wgt id='103'> +1.8605159e+01 </wgt>
<wgt id='104'> +1.7344026e+01 </wgt>
<wgt id='105'> +1.7918948e+01 </wgt>
<wgt id='106'> +1.6505587e+01 </wgt>
<wgt id='107'> +1.7066435e+01 </wgt>
<wgt id='108'> +1.5972511e+01 </wgt>
<wgt id='109'> +1.6953494e+01 </wgt>
<wgt id='110'> +1.7699581e+01 </wgt>
<wgt id='111'> +1.7109627e+01 </wgt>
<wgt id='112'> +1.6854872e+01 </wgt>
<wgt id='113'> +1.6805669e+01 </wgt>
<wgt id='114'> +1.7291445e+01 </wgt>
<wgt id='115'> +1.6603563e+01 </wgt>
<wgt id='116'> +1.7898060e+01 </wgt>
<wgt id='117'> +1.7337464e+01 </wgt>
<wgt id='118'> +1.8288204e+01 </wgt>
<wgt id='119'> +1.7329250e+01 </wgt>
<wgt id='120'> +1.7071537e+01 </wgt>
<wgt id='121'> +1.7534576e+01 </wgt>
<wgt id='122'> +1.7452837e+01 </wgt>
<wgt id='123'> +1.7499708e+01 </wgt>
<wgt id='124'> +1.8734045e+01 </wgt>
<wgt id='125'> +1.8964080e+01 </wgt>
<wgt id='126'> +1.7944937e+01 </wgt>
<wgt id='127'> +1.7992487e+01 </wgt>
<wgt id='128'> +1.6114279e+01 </wgt>
<wgt id='129'> +1.8931473e+01 </wgt>
<wgt id='130'> +1.6955132e+01 </wgt>
<wgt id='131'> +1.8087285e+01 </wgt>
<wgt id='132'> +1.8289872e+01 </wgt>
<wgt id='133'> +1.7982902e+01 </wgt>
<wgt id='134'> +1.7211790e+01 </wgt>
<wgt id='135'> +1.7851974e+01 </wgt>
<wgt id='136'> +1.8094280e+01 </wgt>
<wgt id='137'> +1.6812637e+01 </wgt>
<wgt id='138'> +1.6566168e+01 </wgt>
<wgt id='139'> +1.8183108e+01 </wgt>
<wgt id='140'> +1.7955822e+01 </wgt>
<wgt id='141'> +1.7488783e+01 </wgt>
<wgt id='142'> +1.7023054e+01 </wgt>
<wgt id='143'> +1.7859476e+01 </wgt>
<wgt id='144'> +1.7388622e+01 </wgt>
<wgt id='145'> +1.7325732e+01 </wgt>
</rwgt>
</event>
<event>
 3      1 +1.7556000e+01 1.25000000e+02 7.54677100e-03 1.23506900e-01
       21 -1    0    0  502  501 +0.0000000000e+00 +0.0000000000e+00 +1.4895203481e+01 1.4895203481e+01 0.0000000000e+00 0.0000e+00 -1.0000e+00
       21 -1    0    0  501  502 -0.0000000000e+00 -0.0000000000e+00 -2.6224885112e+02 2.6224885112e+02 0.0000000000e+00 0.0000e+00 -1.0000e+00
       25  1    1    2    0    0 +0.0000000000e+00 +0.0000000000e+00 -2.4735364764e+02 2.7714405460e+02 1.2500000000e+02 0.0000e+00 0.0000e+00
<mgrwt>
<rscale>  0 0.12500000E+03</rscale>
<asrwt>0</asrwt>
<pdfrwt beam="1">  1       21 0.22915697E-02 0.12500000E+03</pdfrwt>
<pdfrwt beam="2">  1       21 0.40345978E-01 0.12500000E+03</pdfrwt>
<totfact> 0.57410737E+06</totfact>
</mgrwt>
<rwgt>
<wgt id='1'> +1.6791168e+01 </wgt>
<wgt id='2'> +0.0000000e+00 </wgt>
<wgt id='3'> +1.6791168e+01 </wgt>
<wgt id='4'> +1.5645057e+01 </wgt>
<wgt id='5'> +1.6791168e+01 </wgt>
<wgt id='6'> +1.7556000e+01 </wgt>
<wgt id='7'> +0.0000000e+00 </wgt>
<wgt id='8'> +1.7556000e+01 </wgt>
<wgt id='9'> +1.6791168e+01 </wgt>
<wgt id='10'> +1.7556000e+01 </wgt>
<wgt id='11'> +1.7884234e+01 </wgt>
<wgt id='12'> +0.0000000e+00 </wgt>
<wgt id='13'> +1.7884234e+01 </wgt>
<wgt id='14'> +1.7556000e+01 </wgt>
<wgt id='15'> +1.7884234e+01 </wgt>
<wgt id='16'> +1.6791168e+01 </wgt>
<wgt id='17'> +0.0000000e+00 </wgt>
<wgt id='18'> +1.6791168e+01 </wgt>
<wgt id='19'> +1.5645057e+01 </wgt>
<wgt id='20'> +1.6791168e+01 </wgt>
<wgt id='21'> +0.0000000e+00 </wgt>
<wgt id='22'> +1.7556000e+01 </wgt>
<wgt id='23'> +1.6791168e+01 </wgt>
<wgt id='24'> +1.7556000e+01 </wgt>
<wgt id='25'> +1.7884234e+01 </wgt>
<wgt id='26'> +0.0000000e+00 </wgt>
<wgt id='27'> +1.7884234e+01 </wgt>
<wgt id='28'> +1.7556000e+01 </wgt>
<wgt id='29'> +1.7884234e+01 </wgt>
<wgt id='30'> +1.6791168e+01 </wgt>
<wgt id='31'> +0.0000000e+00 </wgt>
<wgt id='32'> +1.6791168e+01 </wgt>
<wgt id='33'> +1.5645057e+01 </wgt>
<wgt id='34'> +1.6791168e+01 </wgt>
<wgt id='35'> +1.7556000e+01 </wgt>
<wgt id='36'> +0.0000000e+00 </wgt>
<wgt id='37'> +1.7556000e+01 </wgt>
<wgt id='38'> +1.6791168e+01 </wgt>
<wgt id='39'> +1.7556000e+01 </wgt>
<wgt id='40'> +1.7884234e+01 </wgt>
<wgt id='41'> +0.0000000e+00 </wgt>
<wgt id='42'> +1.7884234e+01 </wgt>
<wgt id='43'> +1.7556000e+01 </wgt>
<wgt id='44'> +1.7884234e+01 </wgt>
<wgt id='45'> +1.7556000e+01 </wgt>
<wgt id='46'> +1.7295424e+01 </wgt>
<wgt id='47'> +1.7618942e+01 </wgt>
<wgt id='48'> +1.7388985e+01 </wgt>
<wgt id='49'> +1.7698589e+01 </wgt>
<wgt id='50'> +1.8498902e+01 </wgt>
<wgt id='51'> +1.7338769e+01 </wgt>
<wgt id='52'> +1.7491115e+01 </wgt>
<wgt id='53'> +1.7717410e+01 </wgt>
<wgt id='54'> +1.7616522e+01 </wgt>
<wgt id='55'> +1.6431081e+01 </wgt>
<wgt id='56'> +1.7081990e+01 </wgt>
<wgt id='57'> +1.7271371e+01 </wgt>
<wgt id='58'> +1.8158236e+01 </wgt>
<wgt id='59'> +1.7252893e+01 </wgt>
<wgt id='60'> +1.7257742e+01 </wgt>
<wgt id='61'> +1.7686731e+01 </wgt>
<wgt id='62'> +1.7374331e+01 </wgt>
<wgt id='63'> +1.7646197e+01 </wgt>
<wgt id='64'> +1.7803545e+01 </wgt>
<wgt id='65'> +1.9214683e+01 </wgt>
<wgt id='66'> +1.7119652e+01 </wgt>
<wgt id='67'> +1.7621869e+01 </wgt>
<wgt id='68'> +1.8140947e+01 </wgt>
<wgt id='69'> +1.6596653e+01 </wgt>
<wgt id='70'> +1.7411087e+01 </wgt>
<wgt id='71'> +1.7710835e+01 </wgt>
<wgt id='72'> +1.7962638e+01 </wgt>
<wgt id='73'> +1.7736177e+01 </wgt>
<wgt id='74'> +1.7687566e+01 </wgt>
<wgt id='75'> +1.7741687e+01 </wgt>
<wgt id='76'> +1.7226411e+01 </wgt>
<wgt id='77'> +1.7035270e+01 </wgt>
<wgt id='78'> +1.7838787e+01 </wgt>
<wgt id='79'> +1.7040729e+01 </wgt>
<wgt id='80'> +1.7499265e+01 </wgt>
<wgt id='81'> +1.7442283e+01 </wgt>
<wgt id='82'> +1.8040882e+01 </wgt>
<wgt id='83'> +1.7389805e+01 </wgt>
<wgt id='84'> +1.8262246e+01 </wgt>
<wgt id='85'> +1.8234323e+01 </wgt>
<wgt id='86'> +1.7223728e+01 </wgt>
<wgt id='87'> +1.7512815e+01 </wgt>
<wgt id='88'> +1.7361434e+01 </wgt>
<wgt id='89'> +1.7916853e+01 </wgt>
<wgt id='90'> +1.7748654e+01 </wgt>
<wgt id='91'> +1.8410132e+01 </wgt>
<wgt id='92'> +1.7096851e+01 </wgt>
<wgt id='93'> +1.7293630e+01 </wgt>
<wgt id='94'> +1.7741337e+01 </wgt>
<wgt id='95'> +1.7205664e+01 </wgt>
<wgt id='96'> +1.8043524e+01 </wgt>
<wgt id='97'> +1.7875606e+01 </wgt>
<wgt id='98'> +1.6830127e+01 </wgt>
<wgt id='99'> +1.7517846e+01 </wgt>
<wgt id='100'> +1.8130050e+01 </wgt>
<wgt id='101'> +1.7707690e+01 </wgt>
<wgt id='102'> +1.6707745e+01 </wgt>
<wgt id='103'> +1.8454956e+01 </wgt>
<wgt id='104'> +1.7159657e+01 </wgt>
<wgt id='105'> +1.8308523e+01 </wgt>
<wgt id='106'> +1.7106534e+01 </wgt>
<wgt id='107'> +1.7979135e+01 </wgt>
<wgt id='108'> +1.6659396e+01 </wgt>
<wgt id='109'> +1.7182416e+01 </wgt>
<wgt id='110'> +1.7868401e+01 </wgt>
<wgt id='111'> +1.7321529e+01 </wgt>
<wgt id='112'> +1.7222267e+01 </wgt>
<wgt id='113'> +1.6853457e+01 </wgt>
<wgt id='114'> +1.7988719e+01 </wgt>
<wgt id='115'> +1.7713082e+01 </wgt>
<wgt id='116'> +1.7066316e+01 </wgt>
<wgt id='117'> +1.7774205e+01 </wgt>
<wgt id='118'> +1.7542983e+01 </wgt>
<wgt id='119'> +1.7293460e+01 </wgt>
<wgt id='120'> +1.7587131e+01 </wgt>
<wgt id='121'> +1.7529095e+01 </wgt>
<wgt id='122'> +1.7468089e+01 </wgt>
<wgt id='123'> +1.7455572e+01 </wgt>
<wgt id='124'> +1.7900064e+01 </wgt>
<wgt id='125'> +1.8063446e+01 </wgt>
<wgt id='126'> +1.7874055e+01 </wgt>
<wgt id='127'> +1.7823815e+01 </wgt>
<wgt id='128'> +1.6640211e+01 </wgt>
<wgt id='129'> +1.9041482e+01 </wgt>
<wgt id='130'> +1.7183346e+01 </wgt>
<wgt id='131'> +1.8475272e+01 </wgt>
<wgt id='132'> +1.7331977e+01 </wgt>
<wgt id='133'> +1.7215637e+01 </wgt>
<wgt id='134'> +1.6817315e+01 </wgt>
<wgt id='135'> +1.7944133e+01 </wgt>
<wgt id='136'> +1.6991661e+01 </wgt>
<wgt id='137'> +1.6514792e+01 </wgt>
<wgt id='138'> +1.5767648e+01 </wgt>
<wgt id='139'> +1.7804896e+01 </wgt>
<wgt id='140'> +1.8517530e+01 </wgt>
<wgt id='141'> +1.7287976e+01 </wgt>
<wgt id='142'> +1.8110843e+01 </wgt>
<wgt id='143'> +1.7426403e+01 </wgt>
<wgt id='144'> +1.7883160e+01 </wgt>
<wgt id='145'> +1.7472026e+01 </wgt>
</rwgt>
</event>
<event>
 3      1 +1.7556000e+01 1.25000000e+02 7.54677100e-03 1.23506900e-01
       21 -1    0    0  502  501 +0.0000000000e+00 +0.0000000000e+00 +2.5961403455e+02 2.5961403455e+02 0.0000000000e+00 0.0000e+00 -1.0000e+00
       21 -1    0    0  501  502 -0.0000000000e+00 -0.0000000000e+00 -1.5046374541e+01 1.5046374541e+01 0.0000000000e+00 0.0000e+00 -1.0000e+00
       25  1    1    2    0    0 +0.0000000000e+00 +0.0000000000e+00 +2.4456766001e+02 2.7466040909e+02 1.2500000000e+02 0.0000e+00 0.0000e+00
<mgrwt>
<rscale>  0 0.12500000E+03</rscale>
<asrwt>0</asrwt>
<pdfrwt beam="1">  1       21 0.39940617E-01 0.12500000E+03</pdfrwt>
<pdfrwt beam="2">  1       21 0.23148270E-02 0.12500000E+03</pdfrwt>
<totfact> 0.57630003E+06</totfact>
</mgrwt>
<rwgt>
<wgt id='1'> +1.6788823e+01 </wgt>
<wgt id='2'> +0.0000000e+00 </wgt>
<wgt id='3'> +1.6788823e+01 </wgt>
<wgt id='4'> +1.5640385e+01 </wgt>
<wgt id='5'> +1.6788823e+01 </wgt>
<wgt id='6'> +1.7556000e+01 </wgt>
<wgt id='7'> +0.0000000e+00 </wgt>
<wgt id='8'> +1.7556000e+01 </wgt>
<wgt id='9'> +1.6788823e+01 </wgt>
<wgt id='10'> +1.7556000e+01 </wgt>
<wgt id='11'> +1.7886464e+01 </wgt>
<wgt id='12'> +0.0000000e+00 </wgt>
<wgt id='13'> +1.7886464e+01 </wgt>
<wgt id='14'> +1.7556000e+01 </wgt>
<wgt id='15'> +1.7886464e+01 </wgt>
<wgt id='16'> +1.6788823e+01 </wgt>
<wgt id='17'> +0.0000000e+00 </wgt>
<wgt id='18'> +1.6788823e+01 </wgt>
<wgt id='19'> +1.5640385e+01 </wgt>
<wgt id='20'> +1.6788823e+01 </wgt>
<wgt id='21'> +0.0000000e+00 </wgt>
<wgt id='22'> +1.7556000e+01 </wgt>
<wgt id='23'> +1.6788823e+01 </wgt>
<wgt id='24'> +1.7556000e+01 </wgt>
<wgt id='25'> +1.7886464e+01 </wgt>
<wgt id='26'> +0.0000000e+00 </wgt>
<wgt id='27'> +1.7886464e+01 </wgt>
<wgt id='28'> +1.7556000e+01 </wgt>
<wgt id='29'> +1.7886464e+01 </wgt>
<wgt id='30'> +1.6788823e+01 </wgt>
<wgt id='31'> +0.0000000e+00 </wgt>
<wgt id='32'> +1.6788823e+01 </wgt>
<wgt id='33'> +1.5640385e+01 </wgt>
<wgt id='34'> +1.6788823e+01 </wgt>
<wgt id='35'> +1.7556000e+01 </wgt>
<wgt id='36'> +0.0000000e+00 </wgt>
<wgt id='37'> +1.7556000e+01 </wgt>
<wgt id='38'> +1.6788823e+01 </wgt>
<wgt id='39'> +1.7556000e+01 </wgt>
<wgt id='40'> +1.7886464e+01 </wgt>
<wgt id='41'> +0.0000000e+00 </wgt>
<wgt id='42'> +1.7886464e+01 </wgt>
<wgt id='43'> +1.7556000e+01 </wgt>
<wgt id='44'> +1.7886464e+01 </wgt>
<wgt id='45'> +1.7556000e+01 </wgt>
<wgt id='46'> +1.7290268e+01 </wgt>
<wgt id='47'> +1.7617488e+01 </wgt>
<wgt id='48'> +1.7385465e+01 </wgt>
<wgt id='49'> +1.7697317e+01 </wgt>
<wgt id='50'> +1.8489426e+01 </wgt>
<wgt id='51'> +1.7338047e+01 </wgt>
<wgt id='52'> +1.7488981e+01 </wgt>
<wgt id='53'> +1.7722620e+01 </wgt>
<wgt id='54'> +1.7616893e+01 </wgt>
<wgt id='55'> +1.6431588e+01 </wgt>
<wgt id='56'> +1.7086867e+01 </wgt>
<wgt id='57'> +1.7271782e+01 </wgt>
<wgt id='58'> +1.8162046e+01 </wgt>
<wgt id='59'> +1.7247234e+01 </wgt>
<wgt id='60'> +1.7249924e+01 </wgt>
<wgt id='61'> +1.7696668e+01 </wgt>
<wgt id='62'> +1.7372330e+01 </wgt>
<wgt id='63'> +1.7645765e+01 </wgt>
<wgt id='64'> +1.7807677e+01 </wgt>
<wgt id='65'> +1.9217394e+01 </wgt>
<wgt id='66'> +1.7119318e+01 </wgt>
<wgt id='67'> +1.7622812e+01 </wgt>
<wgt id='68'> +1.8137214e+01 </wgt>
<wgt id='69'> +1.6591447e+01 </wgt>
<wgt id='70'> +1.7412954e+01 </wgt>
<wgt id='71'> +1.7712410e+01 </wgt>
<wgt id='72'> +1.7972148e+01 </wgt>
<wgt id='73'> +1.7737028e+01 </wgt>
<wgt id='74'> +1.7681984e+01 </wgt>
<wgt id='75'> +1.7739688e+01 </wgt>
<wgt id='76'> +1.7228507e+01 </wgt>
<wgt id='77'> +1.7030841e+01 </wgt>
<wgt id='78'> +1.7844323e+01 </wgt>
<wgt id='79'> +1.7036253e+01 </wgt>
<wgt id='80'> +1.7501923e+01 </wgt>
<wgt id='81'> +1.7445096e+01 </wgt>
<wgt id='82'> +1.8044028e+01 </wgt>
<wgt id='83'> +1.7388338e+01 </wgt>
<wgt id='84'> +1.8262238e+01 </wgt>
<wgt id='85'> +1.8233355e+01 </wgt>
<wgt id='86'> +1.7220630e+01 </wgt>
<wgt id='87'> +1.7510343e+01 </wgt>
<wgt id='88'> +1.7361667e+01 </wgt>
<wgt id='89'> +1.7912238e+01 </wgt>
<wgt id='90'> +1.7745811e+01 </wgt>
<wgt id='91'> +1.8412183e+01 </wgt>
<wgt id='92'> +1.7107622e+01 </wgt>
<wgt id='93'> +1.7289277e+01 </wgt>
<wgt id='94'> +1.7744733e+01 </wgt>
<wgt id='95'> +1.7208397e+01 </wgt>
<wgt id='96'> +1.8037442e+01 </wgt>
<wgt id='97'> +1.7878768e+01 </wgt>
<wgt id='98'> +1.6829177e+01 </wgt>
<wgt id='99'> +1.7517710e+01 </wgt>
<wgt id='100'> +1.8138302e+01 </wgt>
<wgt id='101'> +1.7697998e+01 </wgt>
<wgt id='102'> +1.6698823e+01 </wgt>
<wgt id='103'> +1.8450488e+01 </wgt>
<wgt id='104'> +1.7158338e+01 </wgt>
<wgt id='105'> +1.8313285e+01 </wgt>
<wgt id='106'> +1.7115398e+01 </wgt>
<wgt id='107'> +1.7988097e+01 </wgt>
<wgt id='108'> +1.6668456e+01 </wgt>
<wgt id='109'> +1.7187114e+01 </wgt>
<wgt id='110'> +1.7869047e+01 </wgt>
<wgt id='111'> +1.7325100e+01 </wgt>
<wgt id='112'> +1.7227346e+01 </wgt>
<wgt id='113'> +1.6856702e+01 </wgt>
<wgt id='114'> +1.7997975e+01 </wgt>
<wgt id='115'> +1.7723375e+01 </wgt>
<wgt id='116'> +1.7058840e+01 </wgt>
<wgt id='117'> +1.7777569e+01 </wgt>
<wgt id='118'> +1.7535360e+01 </wgt>
<wgt id='119'> +1.7296010e+01 </wgt>
<wgt id='120'> +1.7593378e+01 </wgt>
<wgt id='121'> +1.7531017e+01 </wgt>
<wgt id='122'> +1.7468960e+01 </wgt>
<wgt id='123'> +1.7453903e+01 </wgt>
<wgt id='124'> +1.7892540e+01 </wgt>
<wgt id='125'> +1.8056516e+01 </wgt>
<wgt id='126'> +1.7871128e+01 </wgt>
<wgt id='127'> +1.7820472e+01 </wgt>
<wgt id='128'> +1.6645744e+01 </wgt>
<wgt id='129'> +1.9040608e+01 </wgt>
<wgt id='130'> +1.7183575e+01 </wgt>
<wgt id='131'> +1.8476014e+01 </wgt>
<wgt id='132'> +1.7326403e+01 </wgt>
<wgt id='133'> +1.7209496e+01 </wgt>
<wgt id='134'> +1.6816169e+01 </wgt>
<wgt id='135'> +1.7943612e+01 </wgt>
<wgt id='136'> +1.6986987e+01 </wgt>
<wgt id='137'> +1.6512990e+01 </wgt>
<wgt id='138'> +1.5760889e+01 </wgt>
<wgt id='139'> +1.7800829e+01 </wgt>
<wgt id='140'> +1.8521145e+01 </wgt>
<wgt id='141'> +1.7287538e+01 </wgt>
<wgt id='142'> +1.8116789e+01 </wgt>
<wgt id='143'> +1.7423593e+01 </wgt>
<wgt id='144'> +1.7887253e+01 </wgt>
<wgt id='145'> +1.7472392e+01 </wgt>
</rwgt>
</event>
<event>
 3      1 +1.7556000e+01 1.25000000e+02 7.54677100e-03 1.23506900e-01
       21 -1    0    0  502  501 +0.0000000000e+00 +0.0000000000e+00 +1.7884548805e+02 1.7884548805e+02 0.0000000000e+00 0.0000e+00 1.0000e+00
       21 -1    0    0  501  502 -0.0000000000e+00 -0.0000000000e+00 -2.1841479159e+01 2.1841479159e+01 0.0000000000e+00 0.0000e+00 1.0000e+00
       25  1    1    2    0    0 +0.0000000000e+00 +0.0000000000e+00 +1.5700400889e+02 2.0068696721e+02 1.2500000000e+02 0.0000e+00 0.0000e+00
<mgrwt>
<rscale>  0 0.12500000E+03</rscale>
<asrwt>0</asrwt>
<pdfrwt beam="1">  1       21 0.27514690E-01 0.12500000E+03</pdfrwt>
<pdfrwt beam="2">  1       21 0.33602277E-02 0.12500000E+03</pdfrwt>
<totfact> 0.64852891E+06</totfact>
</mgrwt>
<rwgt>
<wgt id='1'> +1.6723005e+01 </wgt>
<wgt id='2'> +0.0000000e+00 </wgt>
<wgt id='3'> +1.6723005e+01 </wgt>
<wgt id='4'> +1.5508302e+01 </wgt>
<wgt id='5'> +1.6723005e+01 </wgt>
<wgt id='6'> +1.7556000e+01 </wgt>
<wgt id='7'> +0.0000000e+00 </wgt>
<wgt id='8'> +1.7556000e+01 </wgt>
<wgt id='9'> +1.6723005e+01 </wgt>
<wgt id='10'> +1.7556000e+01 </wgt>
<wgt id='11'> +1.7948345e+01 </wgt>
<wgt id='12'> +0.0000000e+00 </wgt>
<wgt id='13'> +1.7948345e+01 </wgt>
<wgt id='14'> +1.7556000e+01 </wgt>
<wgt id='15'> +1.7948345e+01 </wgt>
<wgt id='16'> +1.6723005e+01 </wgt>
<wgt id='17'> +0.0000000e+00 </wgt>
<wgt id='18'> +1.6723005e+01 </wgt>
<wgt id='19'> +1.5508302e+01 </wgt>
<wgt id='20'> +1.6723005e+01 </wgt>
<wgt id='21'> +0.0000000e+00 </wgt>
<wgt id='22'> +1.7556000e+01 </wgt>
<wgt id='23'> +1.6723005e+01 </wgt>
<wgt id='24'> +1.7556000e+01 </wgt>
<wgt id='25'> +1.7948345e+01 </wgt>
<wgt id='26'> +0.0000000e+00 </wgt>
<wgt id='27'> +1.7948345e+01 </wgt>
<wgt id='28'> +1.7556000e+01 </wgt>
<wgt id='29'> +1.7948345e+01 </wgt>
<wgt id='30'> +1.6723005e+01 </wgt>
<wgt id='31'> +0.0000000e+00 </wgt>
<wgt id='32'> +1.6723005e+01 </wgt>
<wgt id='33'> +1.5508302e+01 </wgt>
<wgt id='34'> +1.6723005e+01 </wgt>
<wgt id='35'> +1.7556000e+01 </wgt>
<wgt id='36'> +0.0000000e+00 </wgt>
<wgt id='37'> +1.7556000e+01 </wgt>
<wgt id='38'> +1.6723005e+01 </wgt>
<wgt id='39'> +1.7556000e+01 </wgt>
<wgt id='40'> +1.7948345e+01 </wgt>
<wgt id='41'> +0.0000000e+00 </wgt>
<wgt id='42'> +1.7948345e+01 </wgt>
<wgt id='43'> +1.7556000e+01 </wgt>
<wgt id='44'> +1.7948345e+01 </wgt>
<wgt id='45'> +1.7556000e+01 </wgt>
<wgt id='46'> +1.7130021e+01 </wgt>
<wgt id='47'> +1.7564628e+01 </wgt>
<wgt id='48'> +1.7269237e+01 </wgt>
<wgt id='49'> +1.7642876e+01 </wgt>
<wgt id='50'> +1.8189163e+01 </wgt>
<wgt id='51'> +1.7309057e+01 </wgt>
<wgt id='52'> +1.7426949e+01 </wgt>
<wgt id='53'> +1.7879921e+01 </wgt>
<wgt id='54'> +1.7632602e+01 </wgt>
<wgt id='55'> +1.6489879e+01 </wgt>
<wgt id='56'> +1.7228951e+01 </wgt>
<wgt id='57'> +1.7313085e+01 </wgt>
<wgt id='58'> +1.8268549e+01 </wgt>
<wgt id='59'> +1.7098805e+01 </wgt>
<wgt id='60'> +1.7011526e+01 </wgt>
<wgt id='61'> +1.7958643e+01 </wgt>
<wgt id='62'> +1.7299870e+01 </wgt>
<wgt id='63'> +1.7628118e+01 </wgt>
<wgt id='64'> +1.7932135e+01 </wgt>
<wgt id='65'> +1.9287429e+01 </wgt>
<wgt id='66'> +1.7109146e+01 </wgt>
<wgt id='67'> +1.7651537e+01 </wgt>
<wgt id='68'> +1.8028336e+01 </wgt>
<wgt id='69'> +1.6430070e+01 </wgt>
<wgt id='70'> +1.7474619e+01 </wgt>
<wgt id='71'> +1.7766269e+01 </wgt>
<wgt id='72'> +1.8297947e+01 </wgt>
<wgt id='73'> +1.7750832e+01 </wgt>
<wgt id='74'> +1.7510865e+01 </wgt>
<wgt id='75'> +1.7673579e+01 </wgt>
<wgt id='76'> +1.7318196e+01 </wgt>
<wgt id='77'> +1.6894535e+01 </wgt>
<wgt id='78'> +1.7998303e+01 </wgt>
<wgt id='79'> +1.6903390e+01 </wgt>
<wgt id='80'> +1.7579827e+01 </wgt>
<wgt id='81'> +1.7536540e+01 </wgt>
<wgt id='82'> +1.8115751e+01 </wgt>
<wgt id='83'> +1.7333657e+01 </wgt>
<wgt id='84'> +1.8247993e+01 </wgt>
<wgt id='85'> +1.8172125e+01 </wgt>
<wgt id='86'> +1.7121749e+01 </wgt>
<wgt id='87'> +1.7431633e+01 </wgt>
<wgt id='88'> +1.7360100e+01 </wgt>
<wgt id='89'> +1.7752300e+01 </wgt>
<wgt id='90'> +1.7662423e+01 </wgt>
<wgt id='91'> +1.8453987e+01 </wgt>
<wgt id='92'> +1.7487557e+01 </wgt>
<wgt id='93'> +1.7148665e+01 </wgt>
<wgt id='94'> +1.7848302e+01 </wgt>
<wgt id='95'> +1.7327410e+01 </wgt>
<wgt id='96'> +1.7822420e+01 </wgt>
<wgt id='97'> +1.7971023e+01 </wgt>
<wgt id='98'> +1.6819869e+01 </wgt>
<wgt id='99'> +1.7493381e+01 </wgt>
<wgt id='100'> +1.8372577e+01 </wgt>
<wgt id='101'> +1.7408828e+01 </wgt>
<wgt id='102'> +1.6438866e+01 </wgt>
<wgt id='103'> +1.8294334e+01 </wgt>
<wgt id='104'> +1.7118794e+01 </wgt>
<wgt id='105'> +1.8472834e+01 </wgt>
<wgt id='106'> +1.7411898e+01 </wgt>
<wgt id='107'> +1.8264142e+01 </wgt>
<wgt id='108'> +1.6962827e+01 </wgt>
<wgt id='109'> +1.7345771e+01 </wgt>
<wgt id='110'> +1.7882609e+01 </wgt>
<wgt id='111'> +1.7449780e+01 </wgt>
<wgt id='112'> +1.7384484e+01 </wgt>
<wgt id='113'> +1.6970802e+01 </wgt>
<wgt id='114'> +1.8296776e+01 </wgt>
<wgt id='115'> +1.8031445e+01 </wgt>
<wgt id='116'> +1.6828174e+01 </wgt>
<wgt id='117'> +1.7871471e+01 </wgt>
<wgt id='118'> +1.7296404e+01 </wgt>
<wgt id='119'> +1.7391748e+01 </wgt>
<wgt id='120'> +1.7775371e+01 </wgt>
<wgt id='121'> +1.7603242e+01 </wgt>
<wgt id='122'> +1.7502303e+01 </wgt>
<wgt id='123'> +1.7392492e+01 </wgt>
<wgt id='124'> +1.7666764e+01 </wgt>
<wgt id='125'> +1.7852460e+01 </wgt>
<wgt id='126'> +1.7756985e+01 </wgt>
<wgt id='127'> +1.7705587e+01 </wgt>
<wgt id='128'> +1.6813913e+01 </wgt>
<wgt id='129'> +1.9007875e+01 </wgt>
<wgt id='130'> +1.7175486e+01 </wgt>
<wgt id='131'> +1.8480637e+01 </wgt>
<wgt id='132'> +1.7190946e+01 </wgt>
<wgt id='133'> +1.7026211e+01 </wgt>
<wgt id='134'> +1.6801251e+01 </wgt>
<wgt id='135'> +1.7918690e+01 </wgt>
<wgt id='136'> +1.6888413e+01 </wgt>
<wgt id='137'> +1.6461939e+01 </wgt>
<wgt id='138'> +1.5551911e+01 </wgt>
<wgt id='139'> +1.7670053e+01 </wgt>
<wgt id='140'> +1.8618797e+01 </wgt>
<wgt id='141'> +1.7281838e+01 </wgt>
<wgt id='142'> +1.8268215e+01 </wgt>
<wgt id='143'> +1.7352703e+01 </wgt>
<wgt id='144'> +1.8014002e+01 </wgt>
<wgt id='145'> +1.7485239e+01 </wgt>
</rwgt>
</event>
<event>
 3      1 +1.7556000e+01 1.25000000e+02 7.54677100e-03 1.23506900e-01
       21 -1    0    0  502  501 +0.0000000000e+00 +0.0000000000e+00 +2.1475501345e+01 2.1475501345e+01 0.0000000000e+00 0.0000e+00 1.0000e+00
       21 -1    0    0  501  502 -0.0000000000e+00 -0.0000000000e+00 -1.8189330890e+02 1.8189330890e+02 0.0000000000e+00 0.0000e+00 1.0000e+00
       25  1    1    2    0    0 +0.0000000000e+00 +0.0000000000e+00 -1.6041780756e+02 2.0336881025e+02 1.2500000000e+02 0.0000e+00 0.0000e+00
<mgrwt>
<rscale>  0 0.12500000E+03</rscale>
<asrwt>0</asrwt>
<pdfrwt beam="1">  1       21 0.33039234E-02 0.12500000E+03</pdfrwt>
<pdfrwt beam="2">  1       21 0.27983585E-01 0.12500000E+03</pdfrwt>
<totfact> 0.64564038E+06</totfact>
</mgrwt>
<rwgt>
<wgt id='1'> +1.6725829e+01 </wgt>
<wgt id='2'> +0.0000000e+00 </wgt>
<wgt id='3'> +1.6725829e+01 </wgt>
<wgt id='4'> +1.5513937e+01 </wgt>
<wgt id='5'> +1.6725829e+01 </wgt>
<wgt id='6'> +1.7556000e+01 </wgt>
<wgt id='7'> +0.0000000e+00 </wgt>
<wgt id='8'> +1.7556000e+01 </wgt>
<wgt id='9'> +1.6725829e+01 </wgt>
<wgt id='10'> +1.7556000e+01 </wgt>
<wgt id='11'> +1.7945664e+01 </wgt>
<wgt id='12'> +0.0000000e+00 </wgt>
<wgt id='13'> +1.7945664e+01 </wgt>
<wgt id='14'> +1.7556000e+01 </wgt>
<wgt id='15'> +1.7945664e+01 </wgt>
<wgt id='16'> +1.6725829e+01 </wgt>
<wgt id='17'> +0.0000000e+00 </wgt>
<wgt id='18'> +1.6725829e+01 </wgt>
<wgt id='19'> +1.5513937e+01 </wgt>
<wgt id='20'> +1.6725829e+01 </wgt>
<wgt id='21'> +0.0000000e+00 </wgt>
<wgt id='22'> +1.7556000e+01 </wgt>
<wgt id='23'> +1.6725829e+01 </wgt>
<wgt id='24'> +1.7556000e+01 </wgt>
<wgt id='25'> +1.7945664e+01 </wgt>
<wgt id='26'> +0.0000000e+00 </wgt>
<wgt id='27'> +1.7945664e+01 </wgt>
<wgt id='28'> +1.7556000e+01 </wgt>
<wgt id='29'> +1.7945664e+01 </wgt>
<wgt id='30'> +1.6725829e+01 </wgt>
<wgt id='31'> +0.0000000e+00 </wgt>
<wgt id='32'> +1.6725829e+01 </wgt>
<wgt id='33'> +1.5513937e+01 </wgt>
<wgt id='34'> +1.6725829e+01 </wgt>
<wgt id='35'> +1.7556000e+01 </wgt>
<wgt id='36'> +0.0000000e+00 </wgt>
<wgt id='37'> +1.7556000e+01 </wgt>
<wgt id='38'> +1.6725829e+01 </wgt>
<wgt id='39'> +1.7556000e+01 </wgt>
<wgt id='40'> +1.7945664e+01 </wgt>
<wgt id='41'> +0.0000000e+00 </wgt>
<wgt id='42'> +1.7945664e+01 </wgt>
<wgt id='43'> +1.7556000e+01 </wgt>
<wgt id='44'> +1.7945664e+01 </wgt>
<wgt id='45'> +1.7556000e+01 </wgt>
<wgt id='46'> +1.7135916e+01 </wgt>
<wgt id='47'> +1.7567016e+01 </wgt>
<wgt id='48'> +1.7273771e+01 </wgt>
<wgt id='49'> +1.7645248e+01 </wgt>
<wgt id='50'> +1.8201089e+01 </wgt>
<wgt id='51'> +1.7310210e+01 </wgt>
<wgt id='52'> +1.7428793e+01 </wgt>
<wgt id='53'> +1.7874522e+01 </wgt>
<wgt id='54'> +1.7632090e+01 </wgt>
<wgt id='55'> +1.6486006e+01 </wgt>
<wgt id='56'> +1.7223758e+01 </wgt>
<wgt id='57'> +1.7310580e+01 </wgt>
<wgt id='58'> +1.8264779e+01 </wgt>
<wgt id='59'> +1.7103167e+01 </wgt>
<wgt id='60'> +1.7019650e+01 </wgt>
<wgt id='61'> +1.7950375e+01 </wgt>
<wgt id='62'> +1.7302772e+01 </wgt>
<wgt id='63'> +1.7628904e+01 </wgt>
<wgt id='64'> +1.7927875e+01 </wgt>
<wgt id='65'> +1.9286108e+01 </wgt>
<wgt id='66'> +1.7109453e+01 </wgt>
<wgt id='67'> +1.7650477e+01 </wgt>
<wgt id='68'> +1.8032338e+01 </wgt>
<wgt id='69'> +1.6436178e+01 </wgt>
<wgt id='70'> +1.7472123e+01 </wgt>
<wgt id='71'> +1.7764003e+01 </wgt>
<wgt id='72'> +1.8284621e+01 </wgt>
<wgt id='73'> +1.7750497e+01 </wgt>
<wgt id='74'> +1.7517205e+01 </wgt>
<wgt id='75'> +1.7676269e+01 </wgt>
<wgt id='76'> +1.7313935e+01 </wgt>
<wgt id='77'> +1.6899250e+01 </wgt>
<wgt id='78'> +1.7993245e+01 </wgt>
<wgt id='79'> +1.6907870e+01 </wgt>
<wgt id='80'> +1.7576919e+01 </wgt>
<wgt id='81'> +1.7532940e+01 </wgt>
<wgt id='82'> +1.8113969e+01 </wgt>
<wgt id='83'> +1.7336147e+01 </wgt>
<wgt id='84'> +1.8249375e+01 </wgt>
<wgt id='85'> +1.8175558e+01 </wgt>
<wgt id='86'> +1.7125529e+01 </wgt>
<wgt id='87'> +1.7434544e+01 </wgt>
<wgt id='88'> +1.7360596e+01 </wgt>
<wgt id='89'> +1.7758558e+01 </wgt>
<wgt id='90'> +1.7665175e+01 </wgt>
<wgt id='91'> +1.8453252e+01 </wgt>
<wgt id='92'> +1.7471244e+01 </wgt>
<wgt id='93'> +1.7153934e+01 </wgt>
<wgt id='94'> +1.7844300e+01 </wgt>
<wgt id='95'> +1.7321912e+01 </wgt>
<wgt id='96'> +1.7831383e+01 </wgt>
<wgt id='97'> +1.7967786e+01 </wgt>
<wgt id='98'> +1.6819450e+01 </wgt>
<wgt id='99'> +1.7494656e+01 </wgt>
<wgt id='100'> +1.8364312e+01 </wgt>
<wgt id='101'> +1.7419195e+01 </wgt>
<wgt id='102'> +1.6447848e+01 </wgt>
<wgt id='103'> +1.8300763e+01 </wgt>
<wgt id='104'> +1.7120387e+01 </wgt>
<wgt id='105'> +1.8466655e+01 </wgt>
<wgt id='106'> +1.7400001e+01 </wgt>
<wgt id='107'> +1.8253966e+01 </wgt>
<wgt id='108'> +1.6951285e+01 </wgt>
<wgt id='109'> +1.7339414e+01 </wgt>
<wgt id='110'> +1.7882140e+01 </wgt>
<wgt id='111'> +1.7444743e+01 </wgt>
<wgt id='112'> +1.7378710e+01 </wgt>
<wgt id='113'> +1.6965986e+01 </wgt>
<wgt id='114'> +1.8285891e+01 </wgt>
<wgt id='115'> +1.8021251e+01 </wgt>
<wgt id='116'> +1.6836741e+01 </wgt>
<wgt id='117'> +1.7868655e+01 </wgt>
<wgt id='118'> +1.7305333e+01 </wgt>
<wgt id='119'> +1.7387628e+01 </wgt>
<wgt id='120'> +1.7769936e+01 </wgt>
<wgt id='121'> +1.7600054e+01 </wgt>
<wgt id='122'> +1.7500900e+01 </wgt>
<wgt id='123'> +1.7395249e+01 </wgt>
<wgt id='124'> +1.7675019e+01 </wgt>
<wgt id='125'> +1.7859885e+01 </wgt>
<wgt id='126'> +1.7762360e+01 </wgt>
<wgt id='127'> +1.7710194e+01 </wgt>
<wgt id='128'> +1.6807870e+01 </wgt>
<wgt id='129'> +1.9009497e+01 </wgt>
<wgt id='130'> +1.7176402e+01 </wgt>
<wgt id='131'> +1.8481156e+01 </wgt>
<wgt id='132'> +1.7194416e+01 </wgt>
<wgt id='133'> +1.7032722e+01 </wgt>
<wgt id='134'> +1.6800842e+01 </wgt>
<wgt id='135'> +1.7919866e+01 </wgt>
<wgt id='136'> +1.6890431e+01 </wgt>
<wgt id='137'> +1.6463625e+01 </wgt>
<wgt id='138'> +1.5559589e+01 </wgt>
<wgt id='139'> +1.7674982e+01 </wgt>
<wgt id='140'> +1.8615879e+01 </wgt>
<wgt id='141'> +1.7281952e+01 </wgt>
<wgt id='142'> +1.8263501e+01 </wgt>
<wgt id='143'> +1.7354483e+01 </wgt>
<wgt id='144'> +1.8009022e+01 </wgt>
<wgt id='145'> +1.7484632e+01 </wgt>
</rwgt>
</event>
<event>
 3      1 +1.7556000e+01 1.25000000e+02 7.54677100e-03 1.23506900e-01
       21 -1    0    0  502  501 +0.0000000000e+00 +0.0000000000e+00 +8.4019527857e+01 8.4019527857e+01 0.0000000000e+00 0.0000e+00 -1.0000e+00
       21 -1    0    0  501  502 -0.0000000000e+00 -0.0000000000e+00 -4.6492167948e+01 4.6492167948e+01 0.0000000000e+00 0.0000e+00 -1.0000e+00
       25  1    1    2    0    0 +0.0000000000e+00 +0.0000000000e+00 +3.7527359909e+01 1.3051169580e+02 1.2500000000e+02 0.0000e+00 0.0000e+00
<mgrwt>
<rscale>  0 0.12500000E+03</rscale>
<asrwt>0</asrwt>
<pdfrwt beam="1">  1       21 0.12926081E-01 0.12500000E+03</pdfrwt>
<pdfrwt beam="2">  1       21 0.71526412E-02 0.12500000E+03</pdfrwt>
<totfact> 0.73296552E+06</totfact>
</mgrwt>
<rwgt>
<wgt id='1'> +1.6652380e+01 </wgt>
<wgt id='2'> +0.0000000e+00 </wgt>
<wgt id='3'> +1.6652380e+01 </wgt>
<wgt id='4'> +1.5366277e+01 </wgt>
<wgt id='5'> +1.6652380e+01 </wgt>
<wgt id='6'> +1.7556000e+01 </wgt>
<wgt id='7'> +0.0000000e+00 </wgt>
<wgt id='8'> +1.7556000e+01 </wgt>
<wgt id='9'> +1.6652380e+01 </wgt>
<wgt id='10'> +1.7556000e+01 </wgt>
<wgt id='11'> +1.8014514e+01 </wgt>
<wgt id='12'> +0.0000000e+00 </wgt>
<wgt id='13'> +1.8014514e+01 </wgt>
<wgt id='14'> +1.7556000e+01 </wgt>
<wgt id='15'> +1.8014514e+01 </wgt>
<wgt id='16'> +1.6652380e+01 </wgt>
<wgt id='17'> +0.0000000e+00 </wgt>
<wgt id='18'> +1.6652380e+01 </wgt>
<wgt id='19'> +1.5366277e+01 </wgt>
<wgt id='20'> +1.6652380e+01 </wgt>
<wgt id='21'> +0.0000000e+00 </wgt>
<wgt id='22'> +1.7556000e+01 </wgt>
<wgt id='23'> +1.6652380e+01 </wgt>
<wgt id='24'> +1.7556000e+01 </wgt>
<wgt id='25'> +1.8014514e+01 </wgt>
<wgt id='26'> +0.0000000e+00 </wgt>
<wgt id='27'> +1.8014514e+01 </wgt>
<wgt id='28'> +1.7556000e+01 </wgt>
<wgt id='29'> +1.8014514e+01 </wgt>
<wgt id='30'> +1.6652380e+01 </wgt>
<wgt id='31'> +0.0000000e+00 </wgt>
<wgt id='32'> +1.6652380e+01 </wgt>
<wgt id='33'> +1.5366277e+01 </wgt>
<wgt id='34'> +1.6652380e+01 </wgt>
<wgt id='35'> +1.7556000e+01 </wgt>
<wgt id='36'> +0.0000000e+00 </wgt>
<wgt id='37'> +1.7556000e+01 </wgt>
<wgt id='38'> +1.6652380e+01 </wgt>
<wgt id='39'> +1.7556000e+01 </wgt>
<wgt id='40'> +1.8014514e+01 </wgt>
<wgt id='41'> +0.0000000e+00 </wgt>
<wgt id='42'> +1.8014514e+01 </wgt>
<wgt id='43'> +1.7556000e+01 </wgt>
<wgt id='44'> +1.8014514e+01 </wgt>
<wgt id='45'> +1.7556000e+01 </wgt>
<wgt id='46'> +1.6971434e+01 </wgt>
<wgt id='47'> +1.7493400e+01 </wgt>
<wgt id='48'> +1.7139476e+01 </wgt>
<wgt id='49'> +1.7564565e+01 </wgt>
<wgt id='50'> +1.7859660e+01 </wgt>
<wgt id='51'> +1.7273866e+01 </wgt>
<wgt id='52'> +1.7394378e+01 </wgt>
<wgt id='53'> +1.8015527e+01 </wgt>
<wgt id='54'> +1.7641588e+01 </wgt>
<wgt id='55'> +1.6636517e+01 </wgt>
<wgt id='56'> +1.7357607e+01 </wgt>
<wgt id='57'> +1.7409806e+01 </wgt>
<wgt id='58'> +1.8362412e+01 </wgt>
<wgt id='59'> +1.7015492e+01 </wgt>
<wgt id='60'> +1.6802932e+01 </wgt>
<wgt id='61'> +1.8137726e+01 </wgt>
<wgt id='62'> +1.7212826e+01 </wgt>
<wgt id='63'> +1.7600071e+01 </wgt>
<wgt id='64'> +1.8027977e+01 </wgt>
<wgt id='65'> +1.9311612e+01 </wgt>
<wgt id='66'> +1.7102123e+01 </wgt>
<wgt id='67'> +1.7683082e+01 </wgt>
<wgt id='68'> +1.7925210e+01 </wgt>
<wgt id='69'> +1.6261900e+01 </wgt>
<wgt id='70'> +1.7546147e+01 </wgt>
<wgt id='71'> +1.7845105e+01 </wgt>
<wgt id='72'> +1.8696253e+01 </wgt>
<wgt id='73'> +1.7750248e+01 </wgt>
<wgt id='74'> +1.7339663e+01 </wgt>
<wgt id='75'> +1.7594150e+01 </wgt>
<wgt id='76'> +1.7464958e+01 </wgt>
<wgt id='77'> +1.6773597e+01 </wgt>
<wgt id='78'> +1.8114742e+01 </wgt>
<wgt id='79'> +1.6788976e+01 </wgt>
<wgt id='80'> +1.7661687e+01 </wgt>
<wgt id='81'> +1.7639671e+01 </wgt>
<wgt id='82'> +1.8139507e+01 </wgt>
<wgt id='83'> +1.7257967e+01 </wgt>
<wgt id='84'> +1.8198877e+01 </wgt>
<wgt id='85'> +1.8044337e+01 </wgt>
<wgt id='86'> +1.7015509e+01 </wgt>
<wgt id='87'> +1.7352178e+01 </wgt>
<wgt id='88'> +1.7340687e+01 </wgt>
<wgt id='89'> +1.7572824e+01 </wgt>
<wgt id='90'> +1.7599706e+01 </wgt>
<wgt id='91'> +1.8455791e+01 </wgt>
<wgt id='92'> +1.8003563e+01 </wgt>
<wgt id='93'> +1.6999796e+01 </wgt>
<wgt id='94'> +1.7966081e+01 </wgt>
<wgt id='95'> +1.7506017e+01 </wgt>
<wgt id='96'> +1.7557763e+01 </wgt>
<wgt id='97'> +1.8057787e+01 </wgt>
<wgt id='98'> +1.6854650e+01 </wgt>
<wgt id='99'> +1.7440843e+01 </wgt>
<wgt id='100'> +1.8582127e+01 </wgt>
<wgt id='101'> +1.7142390e+01 </wgt>
<wgt id='102'> +1.6213194e+01 </wgt>
<wgt id='103'> +1.8107659e+01 </wgt>
<wgt id='104'> +1.7074265e+01 </wgt>
<wgt id='105'> +1.8653049e+01 </wgt>
<wgt id='106'> +1.7754402e+01 </wgt>
<wgt id='107'> +1.8535322e+01 </wgt>
<wgt id='108'> +1.7286033e+01 </wgt>
<wgt id='109'> +1.7523363e+01 </wgt>
<wgt id='110'> +1.7892309e+01 </wgt>
<wgt id='111'> +1.7599117e+01 </wgt>
<wgt id='112'> +1.7532860e+01 </wgt>
<wgt id='113'> +1.7108098e+01 </wgt>
<wgt id='114'> +1.8577557e+01 </wgt>
<wgt id='115'> +1.8263989e+01 </wgt>
<wgt id='116'> +1.6594601e+01 </wgt>
<wgt id='117'> +1.7926220e+01 </wgt>
<wgt id='118'> +1.7053090e+01 </wgt>
<wgt id='119'> +1.7515280e+01 </wgt>
<wgt id='120'> +1.7869707e+01 </wgt>
<wgt id='121'> +1.7699737e+01 </wgt>
<wgt id='122'> +1.7543054e+01 </wgt>
<wgt id='123'> +1.7304756e+01 </wgt>
<wgt id='124'> +1.7453418e+01 </wgt>
<wgt id='125'> +1.7659135e+01 </wgt>
<wgt id='126'> +1.7561958e+01 </wgt>
<wgt id='127'> +1.7572016e+01 </wgt>
<wgt id='128'> +1.6968052e+01 </wgt>
<wgt id='129'> +1.8965624e+01 </wgt>
<wgt id='130'> +1.7139081e+01 </wgt>
<wgt id='131'> +1.8452571e+01 </wgt>
<wgt id='132'> +1.7146495e+01 </wgt>
<wgt id='133'> +1.6856342e+01 </wgt>
<wgt id='134'> +1.6837959e+01 </wgt>
<wgt id='135'> +1.7881515e+01 </wgt>
<wgt id='136'> +1.6878506e+01 </wgt>
<wgt id='137'> +1.6419995e+01 </wgt>
<wgt id='138'> +1.5340196e+01 </wgt>
<wgt id='139'> +1.7532453e+01 </wgt>
<wgt id='140'> +1.8680721e+01 </wgt>
<wgt id='141'> +1.7283018e+01 </wgt>
<wgt id='142'> +1.8368813e+01 </wgt>
<wgt id='143'> +1.7332388e+01 </wgt>
<wgt id='144'> +1.8160551e+01 </wgt>
<wgt id='145'> +1.7511367e+01 </wgt>
</rwgt>
</event>
<event>
 3      1 +1.7556000e+01 1.25000000e+02 7.54677100e-03 1.23506900e-01
       21 -1    0    0  502  501 +0.0000000000e+00 +0.0000000000e+00 +1.7645607735e+02 1.7645607735e+02 0.0000000000e+00 0.0000e+00 1.0000e+00
       21 -1    0    0  501  502 -0.0000000000e+00 -0.0000000000e+00 -2.2137236975e+01 2.2137236975e+01 0.0000000000e+00 0.0000e+00 1.0000e+00
       25  1    1    2    0    0 +0.0000000000e+00 +0.0000000000e+00 +1.5431884038e+02 1.9859331433e+02 1.2500000000e+02 0.0000e+00 0.0000e+00
<mgrwt>
<rscale>  0 0.12500000E+03</rscale>
<asrwt>0</asrwt>
<pdfrwt beam="1">  1       21 0.27147088E-01 0.12500000E+03</pdfrwt>
<pdfrwt beam="2">  1       21 0.34057289E-02 0.12500000E+03</pdfrwt>
<totfact> 0.65079875E+06</totfact>
</mgrwt>
<rwgt>
<wgt id='1'> +1.6720725e+01 </wgt>
<wgt id='2'> +0.0000000e+00 </wgt>
<wgt id='3'> +1.6720725e+01 </wgt>
<wgt id='4'> +1.5503760e+01 </wgt>
<wgt id='5'> +1.6720725e+01 </wgt>
<wgt id='6'> +1.7556000e+01 </wgt>
<wgt id='7'> +0.0000000e+00 </wgt>
<wgt id='8'> +1.7556000e+01 </wgt>
<wgt id='9'> +1.6720725e+01 </wgt>
<wgt id='10'> +1.7556000e+01 </wgt>
<wgt id='11'> +1.7950514e+01 </wgt>
<wgt id='12'> +0.0000000e+00 </wgt>
<wgt id='13'> +1.7950514e+01 </wgt>
<wgt id='14'> +1.7556000e+01 </wgt>
<wgt id='15'> +1.7950514e+01 </wgt>
<wgt id='16'> +1.6720725e+01 </wgt>
<wgt id='17'> +0.0000000e+00 </wgt>
<wgt id='18'> +1.6720725e+01 </wgt>
<wgt id='19'> +1.5503760e+01 </wgt>
<wgt id='20'> +1.6720725e+01 </wgt>
<wgt id='21'> +0.0000000e+00 </wgt>
<wgt id='22'> +1.7556000e+01 </wgt>
<wgt id='23'> +1.6720725e+01 </wgt>
<wgt id='24'> +1.7556000e+01 </wgt>
<wgt id='25'> +1.7950514e+01 </wgt>
<wgt id='26'> +0.0000000e+00 </wgt>
<wgt id='27'> +1.7950514e+01 </wgt>
<wgt id='28'> +1.7556000e+01 </wgt>
<wgt id='29'> +1.7950514e+01 </wgt>
<wgt id='30'> +1.6720725e+01 </wgt>
<wgt id='31'> +0.0000000e+00 </wgt>
<wgt id='32'> +1.6720725e+01 </wgt>
<wgt id='33'> +1.5503760e+01 </wgt>
<wgt id='34'> +1.6720725e+01 </wgt>
<wgt id='35'> +1.7556000e+01 </wgt>
<wgt id='36'> +0.0000000e+00 </wgt>
<wgt id='37'> +1.7556000e+01 </wgt>
<wgt id='38'> +1.6720725e+01 </wgt>
<wgt id='39'> +1.7556000e+01 </wgt>
<wgt id='40'> +1.7950514e+01 </wgt>
<wgt id='41'> +0.0000000e+00 </wgt>
<wgt id='42'> +1.7950514e+01 </wgt>
<wgt id='43'> +1.7556000e+01 </wgt>
<wgt id='44'> +1.7950514e+01 </wgt>
<wgt id='45'> +1.7556000e+01 </wgt>
<wgt id='46'> +1.7125429e+01 </wgt>
<wgt id='47'> +1.7562724e+01 </wgt>
<wgt id='48'> +1.7265687e+01 </wgt>
<wgt id='49'> +1.7641017e+01 </wgt>
<wgt id='50'> +1.8179761e+01 </wgt>
<wgt id='51'> +1.7308165e+01 </wgt>
<wgt id='52'> +1.7425564e+01 </wgt>
<wgt id='53'> +1.7884082e+01 </wgt>
<wgt id='54'> +1.7632978e+01 </wgt>
<wgt id='55'> +1.6493023e+01 </wgt>
<wgt id='56'> +1.7233017e+01 </wgt>
<wgt id='57'> +1.7315097e+01 </wgt>
<wgt id='58'> +1.8271497e+01 </wgt>
<wgt id='59'> +1.7095488e+01 </wgt>
<wgt id='60'> +1.7005278e+01 </wgt>
<wgt id='61'> +1.7965025e+01 </wgt>
<wgt id='62'> +1.7297606e+01 </wgt>
<wgt id='63'> +1.7627494e+01 </wgt>
<wgt id='64'> +1.7935417e+01 </wgt>
<wgt id='65'> +1.9288320e+01 </wgt>
<wgt id='66'> +1.7108914e+01 </wgt>
<wgt id='67'> +1.7652365e+01 </wgt>
<wgt id='68'> +1.8025200e+01 </wgt>
<wgt id='69'> +1.6425286e+01 </wgt>
<wgt id='70'> +1.7476586e+01 </wgt>
<wgt id='71'> +1.7768062e+01 </wgt>
<wgt id='72'> +1.8308437e+01 </wgt>
<wgt id='73'> +1.7751105e+01 </wgt>
<wgt id='74'> +1.7505913e+01 </wgt>
<wgt id='75'> +1.7671458e+01 </wgt>
<wgt id='76'> +1.7321585e+01 </wgt>
<wgt id='77'> +1.6890901e+01 </wgt>
<wgt id='78'> +1.8002206e+01 </wgt>
<wgt id='79'> +1.6899940e+01 </wgt>
<wgt id='80'> +1.7582113e+01 </wgt>
<wgt id='81'> +1.7539366e+01 </wgt>
<wgt id='82'> +1.8117090e+01 </wgt>
<wgt id='83'> +1.7331676e+01 </wgt>
<wgt id='84'> +1.8246832e+01 </wgt>
<wgt id='85'> +1.8169368e+01 </wgt>
<wgt id='86'> +1.7118790e+01 </wgt>
<wgt id='87'> +1.7429368e+01 </wgt>
<wgt id='88'> +1.7359675e+01 </wgt>
<wgt id='89'> +1.7747419e+01 </wgt>
<wgt id='90'> +1.7660310e+01 </wgt>
<wgt id='91'> +1.8454505e+01 </wgt>
<wgt id='92'> +1.7500474e+01 </wgt>
<wgt id='93'> +1.7144561e+01 </wgt>
<wgt id='94'> +1.7851454e+01 </wgt>
<wgt id='95'> +1.7331758e+01 </wgt>
<wgt id='96'> +1.7815359e+01 </wgt>
<wgt id='97'> +1.7973539e+01 </wgt>
<wgt id='98'> +1.6820247e+01 </wgt>
<wgt id='99'> +1.7492392e+01 </wgt>
<wgt id='100'> +1.8379027e+01 </wgt>
<wgt id='101'> +1.7400757e+01 </wgt>
<wgt id='102'> +1.6431904e+01 </wgt>
<wgt id='103'> +1.8289277e+01 </wgt>
<wgt id='104'> +1.7117528e+01 </wgt>
<wgt id='105'> +1.8477658e+01 </wgt>
<wgt id='106'> +1.7421249e+01 </wgt>
<wgt id='107'> +1.8272078e+01 </wgt>
<wgt id='108'> +1.6971884e+01 </wgt>
<wgt id='109'> +1.7350761e+01 </wgt>
<wgt id='110'> +1.7882989e+01 </wgt>
<wgt id='111'> +1.7453729e+01 </wgt>
<wgt id='112'> +1.7388981e+01 </wgt>
<wgt id='113'> +1.6974605e+01 </wgt>
<wgt id='114'> +1.8305206e+01 </wgt>
<wgt id='115'> +1.8039255e+01 </wgt>
<wgt id='116'> +1.6821483e+01 </wgt>
<wgt id='117'> +1.7873601e+01 </wgt>
<wgt id='118'> +1.7289435e+01 </wgt>
<wgt id='119'> +1.7394995e+01 </wgt>
<wgt id='120'> +1.7779454e+01 </wgt>
<wgt id='121'> +1.7605766e+01 </wgt>
<wgt id='122'> +1.7503403e+01 </wgt>
<wgt id='123'> +1.7390300e+01 </wgt>
<wgt id='124'> +1.7660317e+01 </wgt>
<wgt id='125'> +1.7846654e+01 </wgt>
<wgt id='126'> +1.7752702e+01 </wgt>
<wgt id='127'> +1.7701976e+01 </wgt>
<wgt id='128'> +1.6818609e+01 </wgt>
<wgt id='129'> +1.9006568e+01 </wgt>
<wgt id='130'> +1.7174726e+01 </wgt>
<wgt id='131'> +1.8480185e+01 </wgt>
<wgt id='132'> +1.7188354e+01 </wgt>
<wgt id='133'> +1.7021150e+01 </wgt>
<wgt id='134'> +1.6801649e+01 </wgt>
<wgt id='135'> +1.7917761e+01 </wgt>
<wgt id='136'> +1.6886940e+01 </wgt>
<wgt id='137'> +1.6460639e+01 </wgt>
<wgt id='138'> +1.5545927e+01 </wgt>
<wgt id='139'> +1.7666208e+01 </wgt>
<wgt id='140'> +1.8621014e+01 </wgt>
<wgt id='141'> +1.7281738e+01 </wgt>
<wgt id='142'> +1.8271860e+01 </wgt>
<wgt id='143'> +1.7351390e+01 </wgt>
<wgt id='144'> +1.8017929e+01 </wgt>
<wgt id='145'> +1.7485728e+01 </wgt>
</rwgt>
</event>
<event>
 3      1 +1.7556000e+01 1.25000000e+02 7.54677100e-03 1.23506900e-01
       21 -1    0    0  502  501 +0.0000000000e+00 +0.0000000000e+00 +1.5151579701e+02 1.5151579701e+02 0.0000000000e+00 0.0000e+00 -1.0000e+00
       21 -1    0    0  501  502 -0.0000000000e+00 -0.0000000000e+00 -2.5781140166e+01 2.5781140166e+01 0.0000000000e+00 0.0000e+00 -1.0000e+00
       25  1    1    2    0    0 +0.0000000000e+00 +0.0000000000e+00 +1.2573465684e+02 1.7729693717e+02 1.2500000000e+02 0.0000e+00 0.0000e+00
<mgrwt>
<rscale>  0 0.12500000E+03</rscale>
<asrwt>0</asrwt>
<pdfrwt beam="1">  1       21 0.23310122E-01 0.12500000E+03</pdfrwt>
<pdfrwt beam="2">  1       21 0.39663293E-02 0.12500000E+03</pdfrwt>
<totfact> 0.67462984E+06</totfact>
</mgrwt>
<rwgt>
<wgt id='1'> +1.6699672e+01 </wgt>
<wgt id='2'> +0.0000000e+00 </wgt>
<wgt id='3'> +1.6699672e+01 </wgt>
<wgt id='4'> +1.5461500e+01 </wgt>
<wgt id='5'> +1.6699672e+01 </wgt>
<wgt id='6'> +1.7556000e+01 </wgt>
<wgt id='7'> +0.0000000e+00 </wgt>
<wgt id='8'> +1.7556000e+01 </wgt>
<wgt id='9'> +1.6699672e+01 </wgt>
<wgt id='10'> +1.7556000e+01 </wgt>
<wgt id='11'> +1.7970299e+01 </wgt>
<wgt id='12'> +0.0000000e+00 </wgt>
<wgt id='13'> +1.7970299e+01 </wgt>
<wgt id='14'> +1.7556000e+01 </wgt>
<wgt id='15'> +1.7970299e+01 </wgt>
<wgt id='16'> +1.6699672e+01 </wgt>
<wgt id='17'> +0.0000000e+00 </wgt>
<wgt id='18'> +1.6699672e+01 </wgt>
<wgt id='19'> +1.5461500e+01 </wgt>
<wgt id='20'> +1.6699672e+01 </wgt>
<wgt id='21'> +0.0000000e+00 </wgt>
<wgt id='22'> +1.7556000e+01 </wgt>
<wgt id='23'> +1.6699672e+01 </wgt>
<wgt id='24'> +1.7556000e+01 </wgt>
<wgt id='25'> +1.7970299e+01 </wgt>
<wgt id='26'> +0.0000000e+00 </wgt>
<wgt id='27'> +1.7970299e+01 </wgt>
<wgt id='28'> +1.7556000e+01 </wgt>
<wgt id='29'> +1.7970299e+01 </wgt>
<wgt id='30'> +1.6699672e+01 </wgt>
<wgt id='31'> +0.0000000e+00 </wgt>
<wgt id='32'> +1.6699672e+01 </wgt>
<wgt id='33'> +1.5461500e+01 </wgt>
<wgt id='34'> +1.6699672e+01 </wgt>
<wgt id='35'> +1.7556000e+01 </wgt>
<wgt id='36'> +0.0000000e+00 </wgt>
<wgt id='37'> +1.7556000e+01 </wgt>
<wgt id='38'> +1.6699672e+01 </wgt>
<wgt id='39'> +1.7556000e+01 </wgt>
<wgt id='40'> +1.7970299e+01 </wgt>
<wgt id='41'> +0.0000000e+00 </wgt>
<wgt id='42'> +1.7970299e+01 </wgt>
<wgt id='43'> +1.7556000e+01 </wgt>
<wgt id='44'> +1.7970299e+01 </wgt>
<wgt id='45'> +1.7556000e+01 </wgt>
<wgt id='46'> +1.7077820e+01 </wgt>
<wgt id='47'> +1.7542955e+01 </wgt>
<wgt id='48'> +1.7228291e+01 </wgt>
<wgt id='49'> +1.7620031e+01 </wgt>
<wgt id='50'> +1.8083845e+01 </wgt>
<wgt id='51'> +1.7298148e+01 </wgt>
<wgt id='52'> +1.7412308e+01 </wgt>
<wgt id='53'> +1.7926871e+01 </wgt>
<wgt id='54'> +1.7636736e+01 </wgt>
<wgt id='55'> +1.6528792e+01 </wgt>
<wgt id='56'> +1.7272817e+01 </wgt>
<wgt id='57'> +1.7338815e+01 </wgt>
<wgt id='58'> +1.8300370e+01 </wgt>
<wgt id='59'> +1.7064062e+01 </wgt>
<wgt id='60'> +1.6939829e+01 </wgt>
<wgt id='61'> +1.8025693e+01 </wgt>
<wgt id='62'> +1.7272985e+01 </wgt>
<wgt id='63'> +1.7620217e+01 </wgt>
<wgt id='64'> +1.7967526e+01 </wgt>
<wgt id='65'> +1.9300198e+01 </wgt>
<wgt id='66'> +1.7106279e+01 </wgt>
<wgt id='67'> +1.7661053e+01 </wgt>
<wgt id='68'> +1.7993542e+01 </wgt>
<wgt id='69'> +1.6375955e+01 </wgt>
<wgt id='70'> +1.7496910e+01 </wgt>
<wgt id='71'> +1.7788239e+01 </wgt>
<wgt id='72'> +1.8420168e+01 </wgt>
<wgt id='73'> +1.7752220e+01 </wgt>
<wgt id='74'> +1.7454943e+01 </wgt>
<wgt id='75'> +1.7649463e+01 </wgt>
<wgt id='76'> +1.7359603e+01 </wgt>
<wgt id='77'> +1.6853101e+01 </wgt>
<wgt id='78'> +1.8040670e+01 </wgt>
<wgt id='79'> +1.6864154e+01 </wgt>
<wgt id='80'> +1.7605563e+01 </wgt>
<wgt id='81'> +1.7568708e+01 </wgt>
<wgt id='82'> +1.8128425e+01 </wgt>
<wgt id='83'> +1.7310953e+01 </wgt>
<wgt id='84'> +1.8234933e+01 </wgt>
<wgt id='85'> +1.8137709e+01 </wgt>
<wgt id='86'> +1.7087862e+01 </wgt>
<wgt id='87'> +1.7405673e+01 </wgt>
<wgt id='88'> +1.7355149e+01 </wgt>
<wgt id='89'> +1.7695527e+01 </wgt>
<wgt id='90'> +1.7639396e+01 </wgt>
<wgt id='91'> +1.8458375e+01 </wgt>
<wgt id='92'> +1.7640000e+01 </wgt>
<wgt id='93'> +1.7101122e+01 </wgt>
<wgt id='94'> +1.7884544e+01 </wgt>
<wgt id='95'> +1.7379826e+01 </wgt>
<wgt id='96'> +1.7740700e+01 </wgt>
<wgt id='97'> +1.7999675e+01 </wgt>
<wgt id='98'> +1.6826607e+01 </wgt>
<wgt id='99'> +1.7479428e+01 </wgt>
<wgt id='100'> +1.8443277e+01 </wgt>
<wgt id='101'> +1.7318798e+01 </wgt>
<wgt id='102'> +1.6361362e+01 </wgt>
<wgt id='103'> +1.8236022e+01 </wgt>
<wgt id='104'> +1.7104737e+01 </wgt>
<wgt id='105'> +1.8529221e+01 </wgt>
<wgt id='106'> +1.7519273e+01 </wgt>
<wgt id='107'> +1.8353546e+01 </wgt>
<wgt id='108'> +1.7065716e+01 </wgt>
<wgt id='109'> +1.7402555e+01 </wgt>
<wgt id='110'> +1.7886037e+01 </wgt>
<wgt id='111'> +1.7496125e+01 </wgt>
<wgt id='112'> +1.7434444e+01 </wgt>
<wgt id='113'> +1.7014114e+01 </wgt>
<wgt id='114'> +1.8392454e+01 </wgt>
<wgt id='115'> +1.8117992e+01 </wgt>
<wgt id='116'> +1.6752208e+01 </wgt>
<wgt id='117'> +1.7894451e+01 </wgt>
<wgt id='118'> +1.7217337e+01 </wgt>
<wgt id='119'> +1.7429543e+01 </wgt>
<wgt id='120'> +1.7817899e+01 </wgt>
<wgt id='121'> +1.7632496e+01 </wgt>
<wgt id='122'> +1.7515139e+01 </wgt>
<wgt id='123'> +1.7366834e+01 </wgt>
<wgt id='124'> +1.7595114e+01 </wgt>
<wgt id='125'> +1.7788000e+01 </wgt>
<wgt id='126'> +1.7704743e+01 </wgt>
<wgt id='127'> +1.7663784e+01 </wgt>
<wgt id='128'> +1.6866324e+01 </wgt>
<wgt id='129'> +1.8994081e+01 </wgt>
<wgt id='130'> +1.7166164e+01 </wgt>
<wgt id='131'> +1.8474428e+01 </wgt>
<wgt id='132'> +1.7165782e+01 </wgt>
<wgt id='133'> +1.6969343e+01 </wgt>
<wgt id='134'> +1.6807377e+01 </wgt>
<wgt id='135'> +1.7907658e+01 </wgt>
<wgt id='136'> +1.6875939e+01 </wgt>
<wgt id='137'> +1.6447409e+01 </wgt>
<wgt id='138'> +1.5483603e+01 </wgt>
<wgt id='139'> +1.7625848e+01 </wgt>
<wgt id='140'> +1.8642943e+01 </wgt>
<wgt id='141'> +1.7281481e+01 </wgt>
<wgt id='142'> +1.8306312e+01 </wgt>
<wgt id='143'> +1.7339647e+01 </wgt>
<wgt id='144'> +1.8058788e+01 </wgt>
<wgt id='145'> +1.7491875e+01 </wgt>
</rwgt>
</event>
<event>
 3      1 +1.7556000e+01 1.25000000e+02 7.54677100e-03 1.23506900e-01
       21 -1    0    0  502  501 +0.0000000000e+00 +0.0000000000e+00 +9.0360783092e+01 9.0360783092e+01 0.0000000000e+00 0.0000e+00 1.0000e+00
       21 -1    0    0  501  502 -0.0000000000e+00 -0.0000000000e+00 -4.3229483702e+01 4.3229483702e+01 0.0000000000e+00 0.0000e+00 1.0000e+00
       25  1    1    2    0    0 +0.0000000000e+00 +0.0000000000e+00 +4.7131299390e+01 1.3359026679e+02 1.2500000000e+02 0.0000e+00 0.0000e+00
<mgrwt>
<rscale>  0 0.12500000E+03</rscale>
<asrwt>0</asrwt>
<pdfrwt beam="1">  1       21 0.13901659E-01 0.12500000E+03</pdfrwt>
<pdfrwt beam="2">  1       21 0.66506898E-02 0.12500000E+03</pdfrwt>
<totfact> 0.72883679E+06</totfact>
</mgrwt>
<rwgt>
<wgt id='1'> +1.6656443e+01 </wgt>
<wgt id='2'> +0.0000000e+00 </wgt>
<wgt id='3'> +1.6656443e+01 </wgt>
<wgt id='4'> +1.5374348e+01 </wgt>
<wgt id='5'> +1.6656443e+01 </wgt>
<wgt id='6'> +1.7556000e+01 </wgt>
<wgt id='7'> +0.0000000e+00 </wgt>
<wgt id='8'> +1.7556000e+01 </wgt>
<wgt id='9'> +1.6656443e+01 </wgt>
<wgt id='10'> +1.7556000e+01 </wgt>
<wgt id='11'> +1.8010628e+01 </wgt>
<wgt id='12'> +0.0000000e+00 </wgt>
<wgt id='13'> +1.8010628e+01 </wgt>
<wgt id='14'> +1.7556000e+01 </wgt>
<wgt id='15'> +1.8010628e+01 </wgt>
<wgt id='16'> +1.6656443e+01 </wgt>
<wgt id='17'> +0.0000000e+00 </wgt>
<wgt id='18'> +1.6656443e+01 </wgt>
<wgt id='19'> +1.5374348e+01 </wgt>
<wgt id='20'> +1.6656443e+01 </wgt>
<wgt id='21'> +0.0000000e+00 </wgt>
<wgt id='22'> +1.7556000e+01 </wgt>
<wgt id='23'> +1.6656443e+01 </wgt>
<wgt id='24'> +1.7556000e+01 </wgt>
<wgt id='25'> +1.8010628e+01 </wgt>
<wgt id='26'> +0.0000000e+00 </wgt>
<wgt id='27'> +1.8010628e+01 </wgt>
<wgt id='28'> +1.7556000e+01 </wgt>
<wgt id='29'> +1.8010628e+01 </wgt>
<wgt id='30'> +1.6656443e+01 </wgt>
<wgt id='31'> +0.0000000e+00 </wgt>
<wgt id='32'> +1.6656443e+01 </wgt>
<wgt id='33'> +1.5374348e+01 </wgt>
<wgt id='34'> +1.6656443e+01 </wgt>
<wgt id='35'> +1.7556000e+01 </wgt>
<wgt id='36'> +0.0000000e+00 </wgt>
<wgt id='37'> +1.7556000e+01 </wgt>
<wgt id='38'> +1.6656443e+01 </wgt>
<wgt id='39'> +1.7556000e+01 </wgt>
<wgt id='40'> +1.8010628e+01 </wgt>
<wgt id='41'> +0.0000000e+00 </wgt>
<wgt id='42'> +1.8010628e+01 </wgt>
<wgt id='43'> +1.7556000e+01 </wgt>
<wgt id='44'> +1.8010628e+01 </wgt>
<wgt id='45'> +1.7556000e+01 </wgt>
<wgt id='46'> +1.6978314e+01 </wgt>
<wgt id='47'> +1.7497147e+01 </wgt>
<wgt id='48'> +1.7145424e+01 </wgt>
<wgt id='49'> +1.7568271e+01 </wgt>
<wgt id='50'> +1.7875559e+01 </wgt>
<wgt id='51'> +1.7275362e+01 </wgt>
<wgt id='52'> +1.7394913e+01 </wgt>
<wgt id='53'> +1.8010291e+01 </wgt>
<wgt id='54'> +1.7641516e+01 </wgt>
<wgt id='55'> +1.6627897e+01 </wgt>
<wgt id='56'> +1.7351827e+01 </wgt>
<wgt id='57'> +1.7404421e+01 </wgt>
<wgt id='58'> +1.8358288e+01 </wgt>
<wgt id='59'> +1.7017637e+01 </wgt>
<wgt id='60'> +1.6810810e+01 </wgt>
<wgt id='61'> +1.8131168e+01 </wgt>
<wgt id='62'> +1.7216773e+01 </wgt>
<wgt id='63'> +1.7601434e+01 </wgt>
<wgt id='64'> +1.8024394e+01 </wgt>
<wgt id='65'> +1.9312345e+01 </wgt>
<wgt id='66'> +1.7102322e+01 </wgt>
<wgt id='67'> +1.7681665e+01 </wgt>
<wgt id='68'> +1.7930013e+01 </wgt>
<wgt id='69'> +1.6269558e+01 </wgt>
<wgt id='70'> +1.7542811e+01 </wgt>
<wgt id='71'> +1.7841130e+01 </wgt>
<wgt id='72'> +1.8677060e+01 </wgt>
<wgt id='73'> +1.7750246e+01 </wgt>
<wgt id='74'> +1.7347249e+01 </wgt>
<wgt id='75'> +1.7597964e+01 </wgt>
<wgt id='76'> +1.7457256e+01 </wgt>
<wgt id='77'> +1.6778258e+01 </wgt>
<wgt id='78'> +1.8110404e+01 </wgt>
<wgt id='79'> +1.6793288e+01 </wgt>
<wgt id='80'> +1.7657946e+01 </wgt>
<wgt id='81'> +1.7634825e+01 </wgt>
<wgt id='82'> +1.8139419e+01 </wgt>
<wgt id='83'> +1.7261956e+01 </wgt>
<wgt id='84'> +1.8202306e+01 </wgt>
<wgt id='85'> +1.8051400e+01 </wgt>
<wgt id='86'> +1.7020333e+01 </wgt>
<wgt id='87'> +1.7355593e+01 </wgt>
<wgt id='88'> +1.7342135e+01 </wgt>
<wgt id='89'> +1.7580866e+01 </wgt>
<wgt id='90'> +1.7601901e+01 </wgt>
<wgt id='91'> +1.8456674e+01 </wgt>
<wgt id='92'> +1.7977554e+01 </wgt>
<wgt id='93'> +1.7006279e+01 </wgt>
<wgt id='94'> +1.7960319e+01 </wgt>
<wgt id='95'> +1.7497008e+01 </wgt>
<wgt id='96'> +1.7570582e+01 </wgt>
<wgt id='97'> +1.8054075e+01 </wgt>
<wgt id='98'> +1.6852131e+01 </wgt>
<wgt id='99'> +1.7443319e+01 </wgt>
<wgt id='100'> +1.8573091e+01 </wgt>
<wgt id='101'> +1.7153744e+01 </wgt>
<wgt id='102'> +1.6222310e+01 </wgt>
<wgt id='103'> +1.8116623e+01 </wgt>
<wgt id='104'> +1.7076516e+01 </wgt>
<wgt id='105'> +1.8644903e+01 </wgt>
<wgt id='106'> +1.7738130e+01 </wgt>
<wgt id='107'> +1.8523426e+01 </wgt>
<wgt id='108'> +1.7270937e+01 </wgt>
<wgt id='109'> +1.7515007e+01 </wgt>
<wgt id='110'> +1.7891745e+01 </wgt>
<wgt id='111'> +1.7592099e+01 </wgt>
<wgt id='112'> +1.7526420e+01 </wgt>
<wgt id='113'> +1.7101307e+01 </wgt>
<wgt id='114'> +1.8566101e+01 </wgt>
<wgt id='115'> +1.8256113e+01 </wgt>
<wgt id='116'> +1.6604968e+01 </wgt>
<wgt id='117'> +1.7924901e+01 </wgt>
<wgt id='118'> +1.7063859e+01 </wgt>
<wgt id='119'> +1.7509180e+01 </wgt>
<wgt id='120'> +1.7867936e+01 </wgt>
<wgt id='121'> +1.7694841e+01 </wgt>
<wgt id='122'> +1.7541135e+01 </wgt>
<wgt id='123'> +1.7309309e+01 </wgt>
<wgt id='124'> +1.7462793e+01 </wgt>
<wgt id='125'> +1.7667692e+01 </wgt>
<wgt id='126'> +1.7573149e+01 </wgt>
<wgt id='127'> +1.7578248e+01 </wgt>
<wgt id='128'> +1.6961540e+01 </wgt>
<wgt id='129'> +1.8968119e+01 </wgt>
<wgt id='130'> +1.7141477e+01 </wgt>
<wgt id='131'> +1.8454621e+01 </wgt>
<wgt id='132'> +1.7146386e+01 </wgt>
<wgt id='133'> +1.6863461e+01 </wgt>
<wgt id='134'> +1.6834998e+01 </wgt>
<wgt id='135'> +1.7883353e+01 </wgt>
<wgt id='136'> +1.6877054e+01 </wgt>
<wgt id='137'> +1.6421571e+01 </wgt>
<wgt id='138'> +1.5349404e+01 </wgt>
<wgt id='139'> +1.7538532e+01 </wgt>
<wgt id='140'> +1.8678975e+01 </wgt>
<wgt id='141'> +1.7283007e+01 </wgt>
<wgt id='142'> +1.8365184e+01 </wgt>
<wgt id='143'> +1.7332001e+01 </wgt>
<wgt id='144'> +1.8153432e+01 </wgt>
<wgt id='145'> +1.7509976e+01 </wgt>
</rwgt>
</event>
<event>
 3      1 +1.7556000e+01 1.25000000e+02 7.54677100e-03 1.23506900e-01
       21 -1    0    0  502  501 +0.0000000000e+00 +0.0000000000e+00 +3.1216759340e+02 3.1216759340e+02 0.0000000000e+00 0.0000e+00 -1.0000e+00
       21 -1    0    0  501  502 -0.0000000000e+00 -0.0000000000e+00 -1.2513310422e+01 1.2513310422e+01 0.0000000000e+00 0.0000e+00 -1.0000e+00
       25  1    1    2    0    0 +0.0000000000e+00 +0.0000000000e+00 +2.9965428298e+02 3.2468090382e+02 1.2500000000e+02 0.0000e+00 0.0000e+00
<mgrwt>
<rscale>  0 0.12500000E+03</rscale>
<asrwt>0</asrwt>
<pdfrwt beam="1">  1       21 0.48025778E-01 0.12500000E+03</pdfrwt>
<pdfrwt beam="2">  1       21 0.19251249E-02 0.12500000E+03</pdfrwt>
<totfact> 0.53464480E+06</totfact>
</mgrwt>
<rwgt>
<wgt id='1'> +1.6829591e+01 </wgt>
<wgt id='2'> +0.0000000e+00 </wgt>
<wgt id='3'> +1.6829591e+01 </wgt>
<wgt id='4'> +1.5721949e+01 </wgt>
<wgt id='5'> +1.6829591e+01 </wgt>
<wgt id='6'> +1.7556000e+01 </wgt>
<wgt id='7'> +0.0000000e+00 </wgt>
<wgt id='8'> +1.7556000e+01 </wgt>
<wgt id='9'> +1.6829591e+01 </wgt>
<wgt id='10'> +1.7556000e+01 </wgt>
<wgt id='11'> +1.7847980e+01 </wgt>
<wgt id='12'> +0.0000000e+00 </wgt>
<wgt id='13'> +1.7847980e+01 </wgt>
<wgt id='14'> +1.7556000e+01 </wgt>
<wgt id='15'> +1.7847980e+01 </wgt>
<wgt id='16'> +1.6829591e+01 </wgt>
<wgt id='17'> +0.0000000e+00 </wgt>
<wgt id='18'> +1.6829591e+01 </wgt>
<wgt id='19'> +1.5721949e+01 </wgt>
<wgt id='20'> +1.6829591e+01 </wgt>
<wgt id='21'> +0.0000000e+00 </wgt>
<wgt id='22'> +1.7556000e+01 </wgt>
<wgt id='23'> +1.6829591e+01 </wgt>
<wgt id='24'> +1.7556000e+01 </wgt>
<wgt id='25'> +1.7847980e+01 </wgt>
<wgt id='26'> +0.0000000e+00 </wgt>
<wgt id='27'> +1.7847980e+01 </wgt>
<wgt id='28'> +1.7556000e+01 </wgt>
<wgt id='29'> +1.7847980e+01 </wgt>
<wgt id='30'> +1.6829591e+01 </wgt>
<wgt id='31'> +0.0000000e+00 </wgt>
<wgt id='32'> +1.6829591e+01 </wgt>
<wgt id='33'> +1.5721949e+01 </wgt>
<wgt id='34'> +1.6829591e+01 </wgt>
<wgt id='35'> +1.7556000e+01 </wgt>
<wgt id='36'> +0.0000000e+00 </wgt>
<wgt id='37'> +1.7556000e+01 </wgt>
<wgt id='38'> +1.6829591e+01 </wgt>
<wgt id='39'> +1.7556000e+01 </wgt>
<wgt id='40'> +1.7847980e+01 </wgt>
<wgt id='41'> +0.0000000e+00 </wgt>
<wgt id='42'> +1.7847980e+01 </wgt>
<wgt id='43'> +1.7556000e+01 </wgt>
<wgt id='44'> +1.7847980e+01 </wgt>
<wgt id='45'> +1.7556000e+01 </wgt>
<wgt id='46'> +1.7392387e+01 </wgt>
<wgt id='47'> +1.7640016e+01 </wgt>
<wgt id='48'> +1.7452069e+01 </wgt>
<wgt id='49'> +1.7717963e+01 </wgt>
<wgt id='50'> +1.8665888e+01 </wgt>
<wgt id='51'> +1.7350923e+01 </wgt>
<wgt id='52'> +1.7534676e+01 </wgt>
<wgt id='53'> +1.7614756e+01 </wgt>
<wgt id='54'> +1.7609945e+01 </wgt>
<wgt id='55'> +1.6444306e+01 </wgt>
<wgt id='56'> +1.6989414e+01 </wgt>
<wgt id='57'> +1.7276582e+01 </wgt>
<wgt id='58'> +1.8083608e+01 </wgt>
<wgt id='59'> +1.7372859e+01 </wgt>
<wgt id='60'> +1.7412418e+01 </wgt>
<wgt id='61'> +1.7484226e+01 </wgt>
<wgt id='62'> +1.7408905e+01 </wgt>
<wgt id='63'> +1.7652403e+01 </wgt>
<wgt id='64'> +1.7724043e+01 </wgt>
<wgt id='65'> +1.9147943e+01 </wgt>
<wgt id='66'> +1.7126259e+01 </wgt>
<wgt id='67'> +1.7603065e+01 </wgt>
<wgt id='68'> +1.8211028e+01 </wgt>
<wgt id='69'> +1.6692998e+01 </wgt>
<wgt id='70'> +1.7378375e+01 </wgt>
<wgt id='71'> +1.7682511e+01 </wgt>
<wgt id='72'> +1.7799867e+01 </wgt>
<wgt id='73'> +1.7717538e+01 </wgt>
<wgt id='74'> +1.7792398e+01 </wgt>
<wgt id='75'> +1.7776658e+01 </wgt>
<wgt id='76'> +1.7198231e+01 </wgt>
<wgt id='77'> +1.7121961e+01 </wgt>
<wgt id='78'> +1.7726996e+01 </wgt>
<wgt id='79'> +1.7130304e+01 </wgt>
<wgt id='80'> +1.7448314e+01 </wgt>
<wgt id='81'> +1.7391393e+01 </wgt>
<wgt id='82'> +1.7969928e+01 </wgt>
<wgt id='83'> +1.7411153e+01 </wgt>
<wgt id='84'> +1.8250365e+01 </wgt>
<wgt id='85'> +1.8237904e+01 </wgt>
<wgt id='86'> +1.7280355e+01 </wgt>
<wgt id='87'> +1.7559085e+01 </wgt>
<wgt id='88'> +1.7350428e+01 </wgt>
<wgt id='89'> +1.7998596e+01 </wgt>
<wgt id='90'> +1.7805592e+01 </wgt>
<wgt id='91'> +1.8360120e+01 </wgt>
<wgt id='92'> +1.6918050e+01 </wgt>
<wgt id='93'> +1.7374590e+01 </wgt>
<wgt id='94'> +1.7677797e+01 </wgt>
<wgt id='95'> +1.7169782e+01 </wgt>
<wgt id='96'> +1.8143358e+01 </wgt>
<wgt id='97'> +1.7813181e+01 </wgt>
<wgt id='98'> +1.6857748e+01 </wgt>
<wgt id='99'> +1.7515566e+01 </wgt>
<wgt id='100'> +1.7968350e+01 </wgt>
<wgt id='101'> +1.7893405e+01 </wgt>
<wgt id='102'> +1.6883573e+01 </wgt>
<wgt id='103'> +1.8529548e+01 </wgt>
<wgt id='104'> +1.7182783e+01 </wgt>
<wgt id='105'> +1.8222193e+01 </wgt>
<wgt id='106'> +1.6952277e+01 </wgt>
<wgt id='107'> +1.7810353e+01 </wgt>
<wgt id='108'> +1.6497865e+01 </wgt>
<wgt id='109'> +1.7101963e+01 </wgt>
<wgt id='110'> +1.7855296e+01 </wgt>
<wgt id='111'> +1.7260365e+01 </wgt>
<wgt id='112'> +1.7126752e+01 </wgt>
<wgt id='113'> +1.6801619e+01 </wgt>
<wgt id='114'> +1.7817479e+01 </wgt>
<wgt id='115'> +1.7510392e+01 </wgt>
<wgt id='116'> +1.7206692e+01 </wgt>
<wgt id='117'> +1.7704439e+01 </wgt>
<wgt id='118'> +1.7685208e+01 </wgt>
<wgt id='119'> +1.7253730e+01 </wgt>
<wgt id='120'> +1.7459981e+01 </wgt>
<wgt id='121'> +1.7500256e+01 </wgt>
<wgt id='122'> +1.7454911e+01 </wgt>
<wgt id='123'> +1.7481285e+01 </wgt>
<wgt id='124'> +1.8041989e+01 </wgt>
<wgt id='125'> +1.8195339e+01 </wgt>
<wgt id='126'> +1.7919210e+01 </wgt>
<wgt id='127'> +1.7881754e+01 </wgt>
<wgt id='128'> +1.6534699e+01 </wgt>
<wgt id='129'> +1.9051152e+01 </wgt>
<wgt id='130'> +1.7169659e+01 </wgt>
<wgt id='131'> +1.8451385e+01 </wgt>
<wgt id='132'> +1.7454904e+01 </wgt>
<wgt id='133'> +1.7334711e+01 </wgt>
<wgt id='134'> +1.6850314e+01 </wgt>
<wgt id='135'> +1.7950121e+01 </wgt>
<wgt id='136'> +1.7101440e+01 </wgt>
<wgt id='137'> +1.6551368e+01 </wgt>
<wgt id='138'> +1.5896412e+01 </wgt>
<wgt id='139'> +1.7880128e+01 </wgt>
<wgt id='140'> +1.8440997e+01 </wgt>
<wgt id='141'> +1.7297485e+01 </wgt>
<wgt id='142'> +1.7986898e+01 </wgt>
<wgt id='143'> +1.7487957e+01 </wgt>
<wgt id='144'> +1.7807603e+01 </wgt>
<wgt id='145'> +1.7465715e+01 </wgt>
</rwgt>
</event>
<event>
 3      1 +1.7556000e+01 1.25000000e+02 7.54677100e-03 1.23506900e-01
       21 -1    0    0  502  501 +0.0000000000e+00 +0.0000000000e+00 +9.5661843022e+00 9.5661843022e+00 0.0000000000e+00 0.0000e+00 1.0000e+00
       21 -1    0    0  501  502 -0.0000000000e+00 -0.0000000000e+00 -4.0833940436e+02 4.0833940436e+02 0.0000000000e+00 0.0000e+00 1.0000e+00
       25  1    1    2    0    0 +0.0000000000e+00 +0.0000000000e+00 -3.9877322006e+02 4.1790558867e+02 1.2500000000e+02 0.0000e+00 0.0000e+00
<mgrwt>
<rscale>  0 0.12500000E+03</rscale>
<asrwt>0</asrwt>
<pdfrwt beam="1">  1       21 0.14717207E-02 0.12500000E+03</pdfrwt>
<pdfrwt beam="2">  1       21 0.62821444E-01 0.12500000E+03</pdfrwt>
<totfact> 0.46875937E+06</totfact>
</mgrwt>
<rwgt>
<wgt id='1'> +1.6904284e+01 </wgt>
<wgt id='2'> +0.0000000e+00 </wgt>
<wgt id='3'> +1.6904284e+01 </wgt>
<wgt id='4'> +1.5870797e+01 </wgt>
<wgt id='5'> +1.6904284e+01 </wgt>
<wgt id='6'> +1.7556000e+01 </wgt>
<wgt id='7'> +0.0000000e+00 </wgt>
<wgt id='8'> +1.7556000e+01 </wgt>
<wgt id='9'> +1.6904284e+01 </wgt>
<wgt id='10'> +1.7556000e+01 </wgt>
<wgt id='11'> +1.7777106e+01 </wgt>
<wgt id='12'> +0.0000000e+00 </wgt>
<wgt id='13'> +1.7777106e+01 </wgt>
<wgt id='14'> +1.7556000e+01 </wgt>
<wgt id='15'> +1.7777106e+01 </wgt>
<wgt id='16'> +1.6904284e+01 </wgt>
<wgt id='17'> +0.0000000e+00 </wgt>
<wgt id='18'> +1.6904284e+01 </wgt>
<wgt id='19'> +1.5870797e+01 </wgt>
<wgt id='20'> +1.6904284e+01 </wgt>
<wgt id='21'> +0.0000000e+00 </wgt>
<wgt id='22'> +1.7556000e+01 </wgt>
<wgt id='23'> +1.6904284e+01 </wgt>
<wgt id='24'> +1.7556000e+01 </wgt>
<wgt id='25'> +1.7777106e+01 </wgt>
<wgt id='26'> +0.0000000e+00 </wgt>
<wgt id='27'> +1.7777106e+01 </wgt>
<wgt id='28'> +1.7556000e+01 </wgt>
<wgt id='29'> +1.7777106e+01 </wgt>
<wgt id='30'> +1.6904284e+01 </wgt>
<wgt id='31'> +0.0000000e+00 </wgt>
<wgt id='32'> +1.6904284e+01 </wgt>
<wgt id='33'> +1.5870797e+01 </wgt>
<wgt id='34'> +1.6904284e+01 </wgt>
<wgt id='35'> +1.7556000e+01 </wgt>
<wgt id='36'> +0.0000000e+00 </wgt>
<wgt id='37'> +1.7556000e+01 </wgt>
<wgt id='38'> +1.6904284e+01 </wgt>
<wgt id='39'> +1.7556000e+01 </wgt>
<wgt id='40'> +1.7777106e+01 </wgt>
<wgt id='41'> +0.0000000e+00 </wgt>
<wgt id='42'> +1.7777106e+01 </wgt>
<wgt id='43'> +1.7556000e+01 </wgt>
<wgt id='44'> +1.7777106e+01 </wgt>
<wgt id='45'> +1.7556000e+01 </wgt>
<wgt id='46'> +1.7567086e+01 </wgt>
<wgt id='47'> +1.7661241e+01 </wgt>
<wgt id='48'> +1.7554184e+01 </wgt>
<wgt id='49'> +1.7724604e+01 </wgt>
<wgt id='50'> +1.8946260e+01 </wgt>
<wgt id='51'> +1.7358850e+01 </wgt>
<wgt id='52'> +1.7610051e+01 </wgt>
<wgt id='53'> +1.7427903e+01 </wgt>
<wgt id='54'> +1.7617298e+01 </wgt>
<wgt id='55'> +1.6555827e+01 </wgt>
<wgt id='56'> +1.6820349e+01 </wgt>
<wgt id='57'> +1.7338557e+01 </wgt>
<wgt id='58'> +1.7925849e+01 </wgt>
<wgt id='59'> +1.7634010e+01 </wgt>
<wgt id='60'> +1.7699662e+01 </wgt>
<wgt id='61'> +1.6981958e+01 </wgt>
<wgt id='62'> +1.7450090e+01 </wgt>
<wgt id='63'> +1.7664856e+01 </wgt>
<wgt id='64'> +1.7594846e+01 </wgt>
<wgt id='65'> +1.8975145e+01 </wgt>
<wgt id='66'> +1.7141172e+01 </wgt>
<wgt id='67'> +1.7566342e+01 </wgt>
<wgt id='68'> +1.8355423e+01 </wgt>
<wgt id='69'> +1.6872871e+01 </wgt>
<wgt id='70'> +1.7332417e+01 </wgt>
<wgt id='71'> +1.7625434e+01 </wgt>
<wgt id='72'> +1.7553281e+01 </wgt>
<wgt id='73'> +1.7659668e+01 </wgt>
<wgt id='74'> +1.7990625e+01 </wgt>
<wgt id='75'> +1.7837380e+01 </wgt>
<wgt id='76'> +1.7188583e+01 </wgt>
<wgt id='77'> +1.7276813e+01 </wgt>
<wgt id='78'> +1.7493073e+01 </wgt>
<wgt id='79'> +1.7309856e+01 </wgt>
<wgt id='80'> +1.7338979e+01 </wgt>
<wgt id='81'> +1.7311764e+01 </wgt>
<wgt id='82'> +1.7790389e+01 </wgt>
<wgt id='83'> +1.7429034e+01 </wgt>
<wgt id='84'> +1.8192114e+01 </wgt>
<wgt id='85'> +1.8187317e+01 </wgt>
<wgt id='86'> +1.7381105e+01 </wgt>
<wgt id='87'> +1.7638267e+01 </wgt>
<wgt id='88'> +1.7308108e+01 </wgt>
<wgt id='89'> +1.8103305e+01 </wgt>
<wgt id='90'> +1.7904583e+01 </wgt>
<wgt id='91'> +1.8219578e+01 </wgt>
<wgt id='92'> +1.6660535e+01 </wgt>
<wgt id='93'> +1.7514306e+01 </wgt>
<wgt id='94'> +1.7551476e+01 </wgt>
<wgt id='95'> +1.7171272e+01 </wgt>
<wgt id='96'> +1.8270822e+01 </wgt>
<wgt id='97'> +1.7681964e+01 </wgt>
<wgt id='98'> +1.6941832e+01 </wgt>
<wgt id='99'> +1.7472449e+01 </wgt>
<wgt id='100'> +1.7628409e+01 </wgt>
<wgt id='101'> +1.8248429e+01 </wgt>
<wgt id='102'> +1.7236007e+01 </wgt>
<wgt id='103'> +1.8620692e+01 </wgt>
<wgt id='104'> +1.7232132e+01 </wgt>
<wgt id='105'> +1.8084903e+01 </wgt>
<wgt id='106'> +1.6721208e+01 </wgt>
<wgt id='107'> +1.7508412e+01 </wgt>
<wgt id='108'> +1.6242219e+01 </wgt>
<wgt id='109'> +1.6993735e+01 </wgt>
<wgt id='110'> +1.7816640e+01 </wgt>
<wgt id='111'> +1.7174595e+01 </wgt>
<wgt id='112'> +1.6975065e+01 </wgt>
<wgt id='113'> +1.6747379e+01 </wgt>
<wgt id='114'> +1.7548623e+01 </wgt>
<wgt id='115'> +1.7141321e+01 </wgt>
<wgt id='116'> +1.7467796e+01 </wgt>
<wgt id='117'> +1.7566645e+01 </wgt>
<wgt id='118'> +1.7935007e+01 </wgt>
<wgt id='119'> +1.7224287e+01 </wgt>
<wgt id='120'> +1.7253380e+01 </wgt>
<wgt id='121'> +1.7478182e+01 </wgt>
<wgt id='122'> +1.7444313e+01 </wgt>
<wgt id='123'> +1.7510040e+01 </wgt>
<wgt id='124'> +1.8308145e+01 </wgt>
<wgt id='125'> +1.8460365e+01 </wgt>
<wgt id='126'> +1.7966846e+01 </wgt>
<wgt id='127'> +1.7960853e+01 </wgt>
<wgt id='128'> +1.6349796e+01 </wgt>
<wgt id='129'> +1.9043487e+01 </wgt>
<wgt id='130'> +1.7111711e+01 </wgt>
<wgt id='131'> +1.8363971e+01 </wgt>
<wgt id='132'> +1.7734024e+01 </wgt>
<wgt id='133'> +1.7567540e+01 </wgt>
<wgt id='134'> +1.6949665e+01 </wgt>
<wgt id='135'> +1.7939718e+01 </wgt>
<wgt id='136'> +1.7389864e+01 </wgt>
<wgt id='137'> +1.6632405e+01 </wgt>
<wgt id='138'> +1.6139779e+01 </wgt>
<wgt id='139'> +1.8008483e+01 </wgt>
<wgt id='140'> +1.8276793e+01 </wgt>
<wgt id='141'> +1.7336815e+01 </wgt>
<wgt id='142'> +1.7685853e+01 </wgt>
<wgt id='143'> +1.7620857e+01 </wgt>
<wgt id='144'> +1.7662323e+01 </wgt>
<wgt id='145'> +1.7441791e+01 </wgt>
</rwgt>
</event>
<event>
 3      1 +1.7556000e+01 1.25000000e+02 7.54677100e-03 1.23506900e-01
       21 -1    0    0  502  501 +0.0000000000e+00 +0.0000000000e+00 +1.1031220879e+03 1.1031220879e+03 0.0000000000e+00 0.0000e+00 -1.0000e+00
       21 -1    0    0  501  502 -0.0000000000e+00 -0.0000000000e+00 -3.5410858351e+00 3.5410858351e+00 0.0000000000e+00 0.0000e+00 -1.0000e+00
       25  1    1    2    0    0 +0.0000000000e+00 +0.0000000000e+00 +1.0995810021e+03 1.1066631738e+03 1.2500000000e+02 0.0000e+00 0.0000e+00
<mgrwt>
<rscale>  0 0.12500000E+03</rscale>
<asrwt>0</asrwt>
<pdfrwt beam="1">  1       21 0.16971082E+00 0.12500000E+03</pdfrwt>
<pdfrwt beam="2">  1       21 0.54478332E-03 0.12500000E+03</pdfrwt>
<totfact> 0.21103866E+06</totfact>
</mgrwt>
<rwgt>
<wgt id='1'> +1.7510637e+01 </wgt>
<wgt id='2'> +0.0000000e+00 </wgt>
<wgt id='3'> +1.7510637e+01 </wgt>
<wgt id='4'> +1.7086798e+01 </wgt>
<wgt id='5'> +1.7510637e+01 </wgt>
<wgt id='6'> +1.7556000e+01 </wgt>
<wgt id='7'> +0.0000000e+00 </wgt>
<wgt id='8'> +1.7556000e+01 </wgt>
<wgt id='9'> +1.7510637e+01 </wgt>
<wgt id='10'> +1.7556000e+01 </wgt>
<wgt id='11'> +1.7213665e+01 </wgt>
<wgt id='12'> +0.0000000e+00 </wgt>
<wgt id='13'> +1.7213665e+01 </wgt>
<wgt id='14'> +1.7556000e+01 </wgt>
<wgt id='15'> +1.7213665e+01 </wgt>
<wgt id='16'> +1.7510637e+01 </wgt>
<wgt id='17'> +0.0000000e+00 </wgt>
<wgt id='18'> +1.7510637e+01 </wgt>
<wgt id='19'> +1.7086798e+01 </wgt>
<wgt id='20'> +1.7510637e+01 </wgt>
<wgt id='21'> +0.0000000e+00 </wgt>
<wgt id='22'> +1.7556000e+01 </wgt>
<wgt id='23'> +1.7510637e+01 </wgt>
<wgt id='24'> +1.7556000e+01 </wgt>
<wgt id='25'> +1.7213665e+01 </wgt>
<wgt id='26'> +0.0000000e+00 </wgt>
<wgt id='27'> +1.7213665e+01 </wgt>
<wgt id='28'> +1.7556000e+01 </wgt>
<wgt id='29'> +1.7213665e+01 </wgt>
<wgt id='30'> +1.7510637e+01 </wgt>
<wgt id='31'> +0.0000000e+00 </wgt>
<wgt id='32'> +1.7510637e+01 </wgt>
<wgt id='33'> +1.7086798e+01 </wgt>
<wgt id='34'> +1.7510637e+01 </wgt>
<wgt id='35'> +1.7556000e+01 </wgt>
<wgt id='36'> +0.0000000e+00 </wgt>
<wgt id='37'> +1.7556000e+01 </wgt>
<wgt id='38'> +1.7510637e+01 </wgt>
<wgt id='39'> +1.7556000e+01 </wgt>
<wgt id='40'> +1.7213665e+01 </wgt>
<wgt id='41'> +0.0000000e+00 </wgt>
<wgt id='42'> +1.7213665e+01 </wgt>
<wgt id='43'> +1.7556000e+01 </wgt>
<wgt id='44'> +1.7213665e+01 </wgt>
<wgt id='45'> +1.7556000e+01 </wgt>
<wgt id='46'> +1.8151091e+01 </wgt>
<wgt id='47'> +1.7562078e+01 </wgt>
<wgt id='48'> +1.7651417e+01 </wgt>
<wgt id='49'> +1.6880694e+01 </wgt>
<wgt id='50'> +1.9548726e+01 </wgt>
<wgt id='51'> +1.6849559e+01 </wgt>
<wgt id='52'> +1.7154664e+01 </wgt>
<wgt id='53'> +1.7014382e+01 </wgt>
<wgt id='54'> +1.8349326e+01 </wgt>
<wgt id='55'> +1.9320328e+01 </wgt>
<wgt id='56'> +1.6821464e+01 </wgt>
<wgt id='57'> +1.8509396e+01 </wgt>
<wgt id='58'> +1.6416973e+01 </wgt>
<wgt id='59'> +1.9243800e+01 </wgt>
<wgt id='60'> +1.8541780e+01 </wgt>
<wgt id='61'> +1.5734924e+01 </wgt>
<wgt id='62'> +1.6780366e+01 </wgt>
<wgt id='63'> +1.8296962e+01 </wgt>
<wgt id='64'> +1.7649432e+01 </wgt>
<wgt id='65'> +1.6444384e+01 </wgt>
<wgt id='66'> +1.7466292e+01 </wgt>
<wgt id='67'> +1.7375713e+01 </wgt>
<wgt id='68'> +1.9853616e+01 </wgt>
<wgt id='69'> +1.8324966e+01 </wgt>
<wgt id='70'> +1.8106725e+01 </wgt>
<wgt id='71'> +1.6493281e+01 </wgt>
<wgt id='72'> +1.6564931e+01 </wgt>
<wgt id='73'> +1.6541421e+01 </wgt>
<wgt id='74'> +1.9589136e+01 </wgt>
<wgt id='75'> +1.8734749e+01 </wgt>
<wgt id='76'> +1.7876659e+01 </wgt>
<wgt id='77'> +1.7328166e+01 </wgt>
<wgt id='78'> +1.5572251e+01 </wgt>
<wgt id='79'> +1.8840929e+01 </wgt>
<wgt id='80'> +1.5977605e+01 </wgt>
<wgt id='81'> +1.7629098e+01 </wgt>
<wgt id='82'> +1.6795021e+01 </wgt>
<wgt id='83'> +1.7068407e+01 </wgt>
<wgt id='84'> +1.6789833e+01 </wgt>
<wgt id='85'> +1.6494438e+01 </wgt>
<wgt id='86'> +1.8142735e+01 </wgt>
<wgt id='87'> +1.7648457e+01 </wgt>
<wgt id='88'> +1.6629102e+01 </wgt>
<wgt id='89'> +1.6451290e+01 </wgt>
<wgt id='90'> +1.7169757e+01 </wgt>
<wgt id='91'> +1.5826642e+01 </wgt>
<wgt id='92'> +1.6425252e+01 </wgt>
<wgt id='93'> +1.8037029e+01 </wgt>
<wgt id='94'> +1.6437445e+01 </wgt>
<wgt id='95'> +1.8335304e+01 </wgt>
<wgt id='96'> +1.8147471e+01 </wgt>
<wgt id='97'> +1.6289385e+01 </wgt>
<wgt id='98'> +1.8414056e+01 </wgt>
<wgt id='99'> +1.5843496e+01 </wgt>
<wgt id='100'> +1.4352574e+01 </wgt>
<wgt id='101'> +2.0119848e+01 </wgt>
<wgt id='102'> +1.9620031e+01 </wgt>
<wgt id='103'> +1.7341065e+01 </wgt>
<wgt id='104'> +1.8082860e+01 </wgt>
<wgt id='105'> +1.7655682e+01 </wgt>
<wgt id='106'> +1.6886975e+01 </wgt>
<wgt id='107'> +1.6679677e+01 </wgt>
<wgt id='108'> +1.6264534e+01 </wgt>
<wgt id='109'> +1.7479627e+01 </wgt>
<wgt id='110'> +1.6827958e+01 </wgt>
<wgt id='111'> +1.7086801e+01 </wgt>
<wgt id='112'> +1.7892505e+01 </wgt>
<wgt id='113'> +1.8139227e+01 </wgt>
<wgt id='114'> +1.7813475e+01 </wgt>
<wgt id='115'> +1.5820579e+01 </wgt>
<wgt id='116'> +1.9012018e+01 </wgt>
<wgt id='117'> +1.7008061e+01 </wgt>
<wgt id='118'> +1.8544338e+01 </wgt>
<wgt id='119'> +1.8771572e+01 </wgt>
<wgt id='120'> +1.7388973e+01 </wgt>
<wgt id='121'> +1.7738657e+01 </wgt>
<wgt id='122'> +1.7367244e+01 </wgt>
<wgt id='123'> +1.7004967e+01 </wgt>
<wgt id='124'> +1.9446434e+01 </wgt>
<wgt id='125'> +2.0913141e+01 </wgt>
<wgt id='126'> +1.7352926e+01 </wgt>
<wgt id='127'> +1.7312960e+01 </wgt>
<wgt id='128'> +1.6485870e+01 </wgt>
<wgt id='129'> +1.7852991e+01 </wgt>
<wgt id='130'> +1.6331663e+01 </wgt>
<wgt id='131'> +1.6513646e+01 </wgt>
<wgt id='132'> +1.9347244e+01 </wgt>
<wgt id='133'> +1.9142599e+01 </wgt>
<wgt id='134'> +1.8244131e+01 </wgt>
<wgt id='135'> +1.7151051e+01 </wgt>
<wgt id='136'> +2.0498228e+01 </wgt>
<wgt id='137'> +1.7838389e+01 </wgt>
<wgt id='138'> +1.7969601e+01 </wgt>
<wgt id='139'> +1.8368069e+01 </wgt>
<wgt id='140'> +1.7105980e+01 </wgt>
<wgt id='141'> +1.8782529e+01 </wgt>
<wgt id='142'> +1.3848624e+01 </wgt>
<wgt id='143'> +1.8099137e+01 </wgt>
<wgt id='144'> +1.6306959e+01 </wgt>
<wgt id='145'> +1.6342387e+01 </wgt>
</rwgt>
</event>
<event>
 3      1 +1.7556000e+01 1.25000000e+02 7.54677100e-03 1.23506900e-01
       21 -1    0    0  502  501 +0.0000000000e+00 +0.0000000000e+00 +2.6941732428e+02 2.6941732428e+02 0.0000000000e+00 0.0000e+00 1.0000e+00
       21 -1    0    0  501  502 -0.0000000000e+00 -0.0000000000e+00 -1.4498882024e+01 1.4498882024e+01 0.0000000000e+00 0.0000e+00 1.0000e+00
       25  1    1    2    0    0 +0.0000000000e+00 +0.0000000000e+00 +2.5491844226e+02 2.8391620631e+02 1.2500000000e+02 0.0000e+00 0.0000e+00
<mgrwt>
<rscale>  0 0.12500000E+03</rscale>
<asrwt>0</asrwt>
<pdfrwt beam="1">  1       21 0.41448816E-01 0.12500000E+03</pdfrwt>
<pdfrwt beam="2">  1       21 0.22305974E-02 0.12500000E+03</pdfrwt>
<totfact> 0.56819862E+06</totfact>
</mgrwt>
<rwgt>
<wgt id='1'> +1.6797337e+01 </wgt>
<wgt id='2'> +0.0000000e+00 </wgt>
<wgt id='3'> +1.6797337e+01 </wgt>
<wgt id='4'> +1.5657357e+01 </wgt>
<wgt id='5'> +1.6797337e+01 </wgt>
<wgt id='6'> +1.7556000e+01 </wgt>
<wgt id='7'> +0.0000000e+00 </wgt>
<wgt id='8'> +1.7556000e+01 </wgt>
<wgt id='9'> +1.6797337e+01 </wgt>
<wgt id='10'> +1.7556000e+01 </wgt>
<wgt id='11'> +1.7878378e+01 </wgt>
<wgt id='12'> +0.0000000e+00 </wgt>
<wgt id='13'> +1.7878378e+01 </wgt>
<wgt id='14'> +1.7556000e+01 </wgt>
<wgt id='15'> +1.7878378e+01 </wgt>
<wgt id='16'> +1.6797337e+01 </wgt>
<wgt id='17'> +0.0000000e+00 </wgt>
<wgt id='18'> +1.6797337e+01 </wgt>
<wgt id='19'> +1.5657357e+01 </wgt>
<wgt id='20'> +1.6797337e+01 </wgt>
<wgt id='21'> +0.0000000e+00 </wgt>
<wgt id='22'> +1.7556000e+01 </wgt>
<wgt id='23'> +1.6797337e+01 </wgt>
<wgt id='24'> +1.7556000e+01 </wgt>
<wgt id='25'> +1.7878378e+01 </wgt>
<wgt id='26'> +0.0000000e+00 </wgt>
<wgt id='27'> +1.7878378e+01 </wgt>
<wgt id='28'> +1.7556000e+01 </wgt>
<wgt id='29'> +1.7878378e+01 </wgt>
<wgt id='30'> +1.6797337e+01 </wgt>
<wgt id='31'> +0.0000000e+00 </wgt>
<wgt id='32'> +1.6797337e+01 </wgt>
<wgt id='33'> +1.5657357e+01 </wgt>
<wgt id='34'> +1.6797337e+01 </wgt>
<wgt id='35'> +1.7556000e+01 </wgt>
<wgt id='36'> +0.0000000e+00 </wgt>
<wgt id='37'> +1.7556000e+01 </wgt>
<wgt id='38'> +1.6797337e+01 </wgt>
<wgt id='39'> +1.7556000e+01 </wgt>
<wgt id='40'> +1.7878378e+01 </wgt>
<wgt id='41'> +0.0000000e+00 </wgt>
<wgt id='42'> +1.7878378e+01 </wgt>
<wgt id='43'> +1.7556000e+01 </wgt>
<wgt id='44'> +1.7878378e+01 </wgt>
<wgt id='45'> +1.7556000e+01 </wgt>
<wgt id='46'> +1.7309451e+01 </wgt>
<wgt id='47'> +1.7622697e+01 </wgt>
<wgt id='48'> +1.7398463e+01 </wgt>
<wgt id='49'> +1.7701926e+01 </wgt>
<wgt id='50'> +1.8524303e+01 </wgt>
<wgt id='51'> +1.7340704e+01 </wgt>
<wgt id='52'> +1.7497045e+01 </wgt>
<wgt id='53'> +1.7703071e+01 </wgt>
<wgt id='54'> +1.7615496e+01 </wgt>
<wgt id='55'> +1.6430390e+01 </wgt>
<wgt id='56'> +1.7068696e+01 </wgt>
<wgt id='57'> +1.7270643e+01 </wgt>
<wgt id='58'> +1.8147810e+01 </wgt>
<wgt id='59'> +1.7268709e+01 </wgt>
<wgt id='60'> +1.7279275e+01 </wgt>
<wgt id='61'> +1.7659352e+01 </wgt>
<wgt id='62'> +1.7379696e+01 </wgt>
<wgt id='63'> +1.7647298e+01 </wgt>
<wgt id='64'> +1.7792214e+01 </wgt>
<wgt id='65'> +1.9206796e+01 </wgt>
<wgt id='66'> +1.7120572e+01 </wgt>
<wgt id='67'> +1.7619275e+01 </wgt>
<wgt id='68'> +1.8151078e+01 </wgt>
<wgt id='69'> +1.6610738e+01 </wgt>
<wgt id='70'> +1.7406073e+01 </wgt>
<wgt id='71'> +1.7706619e+01 </wgt>
<wgt id='72'> +1.7937291e+01 </wgt>
<wgt id='73'> +1.7733806e+01 </wgt>
<wgt id='74'> +1.7702723e+01 </wgt>
<wgt id='75'> +1.7747016e+01 </wgt>
<wgt id='76'> +1.7221053e+01 </wgt>
<wgt id='77'> +1.7047443e+01 </wgt>
<wgt id='78'> +1.7823503e+01 </wgt>
<wgt id='79'> +1.7053065e+01 </wgt>
<wgt id='80'> +1.7492032e+01 </wgt>
<wgt id='81'> +1.7434692e+01 </wgt>
<wgt id='82'> +1.8031980e+01 </wgt>
<wgt id='83'> +1.7393598e+01 </wgt>
<wgt id='84'> +1.8261897e+01 </wgt>
<wgt id='85'> +1.8236514e+01 </wgt>
<wgt id='86'> +1.7232093e+01 </wgt>
<wgt id='87'> +1.7519538e+01 </wgt>
<wgt id='88'> +1.7360598e+01 </wgt>
<wgt id='89'> +1.7929290e+01 </wgt>
<wgt id='90'> +1.7756523e+01 </wgt>
<wgt id='91'> +1.8404229e+01 </wgt>
<wgt id='92'> +1.7068309e+01 </wgt>
<wgt id='93'> +1.7305441e+01 </wgt>
<wgt id='94'> +1.7732131e+01 </wgt>
<wgt id='95'> +1.7198691e+01 </wgt>
<wgt id='96'> +1.8059614e+01 </wgt>
<wgt id='97'> +1.7866929e+01 </wgt>
<wgt id='98'> +1.6833003e+01 </wgt>
<wgt id='99'> +1.7518105e+01 </wgt>
<wgt id='100'> +1.8107458e+01 </wgt>
<wgt id='101'> +1.7734145e+01 </wgt>
<wgt id='102'> +1.6732243e+01 </wgt>
<wgt id='103'> +1.8466839e+01 </wgt>
<wgt id='104'> +1.7163170e+01 </wgt>
<wgt id='105'> +1.8295668e+01 </wgt>
<wgt id='106'> +1.7082805e+01 </wgt>
<wgt id='107'> +1.7954748e+01 </wgt>
<wgt id='108'> +1.6635021e+01 </wgt>
<wgt id='109'> +1.7169866e+01 </wgt>
<wgt id='110'> +1.7866639e+01 </wgt>
<wgt id='111'> +1.7311995e+01 </wgt>
<wgt id='112'> +1.7208413e+01 </wgt>
<wgt id='113'> +1.6844894e+01 </wgt>
<wgt id='114'> +1.7963581e+01 </wgt>
<wgt id='115'> +1.7684749e+01 </wgt>
<wgt id='116'> +1.7086627e+01 </wgt>
<wgt id='117'> +1.7764834e+01 </wgt>
<wgt id='118'> +1.7563679e+01 </wgt>
<wgt id='119'> +1.7286752e+01 </wgt>
<wgt id='120'> +1.7569739e+01 </wgt>
<wgt id='121'> +1.7524086e+01 </wgt>
<wgt id='122'> +1.7465819e+01 </wgt>
<wgt id='123'> +1.7459930e+01 </wgt>
<wgt id='124'> +1.7920532e+01 </wgt>
<wgt id='125'> +1.8082304e+01 </wgt>
<wgt id='126'> +1.7881711e+01 </wgt>
<wgt id='127'> +1.7832769e+01 </wgt>
<wgt id='128'> +1.6625097e+01 </wgt>
<wgt id='129'> +1.9043661e+01 </wgt>
<wgt id='130'> +1.7182437e+01 </wgt>
<wgt id='131'> +1.8472968e+01 </wgt>
<wgt id='132'> +1.7347715e+01 </wgt>
<wgt id='133'> +1.7232436e+01 </wgt>
<wgt id='134'> +1.6820791e+01 </wgt>
<wgt id='135'> +1.7945442e+01 </wgt>
<wgt id='136'> +1.7005023e+01 </wgt>
<wgt id='137'> +1.6519764e+01 </wgt>
<wgt id='138'> +1.5786060e+01 </wgt>
<wgt id='139'> +1.7815921e+01 </wgt>
<wgt id='140'> +1.8507425e+01 </wgt>
<wgt id='141'> +1.7289178e+01 </wgt>
<wgt id='142'> +1.8094359e+01 </wgt>
<wgt id='143'> +1.7434339e+01 </wgt>
<wgt id='144'> +1.7872102e+01 </wgt>
<wgt id='145'> +1.7471079e+01 </wgt>
</rwgt>
</event>
<event>
 3      1 +1.7556000e+01 1.25000000e+02 7.54677100e-03 1.23506900e-01
       21 -1    0    0  502  501 +0.0000000000e+00 +0.0000000000e+00 +1.2631002601e+02 1.2631002601e+02 0.0000000000e+00 0.0000e+00 -1.0000e+00
       21 -1    0    0  501  502 -0.0000000000e+00 -0.0000000000e+00 -3.0925890235e+01 3.0925890235e+01 0.0000000000e+00 0.0000e+00 -1.0000e+00
       25  1    1    2    0    0 +0.0000000000e+00 +0.0000000000e+00 +9.5384135775e+01 1.5723591625e+02 1.2500000000e+02 0.0000e+00 0.0000e+00
<mgrwt>
<rscale>  0 0.12500000E+03</rscale>
<asrwt>0</asrwt>
<pdfrwt beam="1">  1       21 0.19432311E-01 0.12500000E+03</pdfrwt>
<pdfrwt beam="2">  1       21 0.47578293E-02 0.12500000E+03</pdfrwt>
<totfact> 0.69858824E+06</totfact>
</mgrwt>
<rwgt>
<wgt id='1'> +1.6680944e+01 </wgt>
<wgt id='2'> +0.0000000e+00 </wgt>
<wgt id='3'> +1.6680944e+01 </wgt>
<wgt id='4'> +1.5423674e+01 </wgt>
<wgt id='5'> +1.6680944e+01 </wgt>
<wgt id='6'> +1.7556000e+01 </wgt>
<wgt id='7'> +0.0000000e+00 </wgt>
<wgt id='8'> +1.7556000e+01 </wgt>
<wgt id='9'> +1.6680944e+01 </wgt>
<wgt id='10'> +1.7556000e+01 </wgt>
<wgt id='11'> +1.7987720e+01 </wgt>
<wgt id='12'> +0.0000000e+00 </wgt>
<wgt id='13'> +1.7987720e+01 </wgt>
<wgt id='14'> +1.7556000e+01 </wgt>
<wgt id='15'> +1.7987720e+01 </wgt>
<wgt id='16'> +1.6680944e+01 </wgt>
<wgt id='17'> +0.0000000e+00 </wgt>
<wgt id='18'> +1.6680944e+01 </wgt>
<wgt id='19'> +1.5423674e+01 </wgt>
<wgt id='20'> +1.6680944e+01 </wgt>
<wgt id='21'> +0.0000000e+00 </wgt>
<wgt id='22'> +1.7556000e+01 </wgt>
<wgt id='23'> +1.6680944e+01 </wgt>
<wgt id='24'> +1.7556000e+01 </wgt>
<wgt id='25'> +1.7987720e+01 </wgt>
<wgt id='26'> +0.0000000e+00 </wgt>
<wgt id='27'> +1.7987720e+01 </wgt>
<wgt id='28'> +1.7556000e+01 </wgt>
<wgt id='29'> +1.7987720e+01 </wgt>
<wgt id='30'> +1.6680944e+01 </wgt>
<wgt id='31'> +0.0000000e+00 </wgt>
<wgt id='32'> +1.6680944e+01 </wgt>
<wgt id='33'> +1.5423674e+01 </wgt>
<wgt id='34'> +1.6680944e+01 </wgt>
<wgt id='35'> +1.7556000e+01 </wgt>
<wgt id='36'> +0.0000000e+00 </wgt>
<wgt id='37'> +1.7556000e+01 </wgt>
<wgt id='38'> +1.6680944e+01 </wgt>
<wgt id='39'> +1.7556000e+01 </wgt>
<wgt id='40'> +1.7987720e+01 </wgt>
<wgt id='41'> +0.0000000e+00 </wgt>
<wgt id='42'> +1.7987720e+01 </wgt>
<wgt id='43'> +1.7556000e+01 </wgt>
<wgt id='44'> +1.7987720e+01 </wgt>
<wgt id='45'> +1.7556000e+01 </wgt>
<wgt id='46'> +1.7032175e+01 </wgt>
<wgt id='47'> +1.7523048e+01 </wgt>
<wgt id='48'> +1.7191046e+01 </wgt>
<wgt id='49'> +1.7597296e+01 </wgt>
<wgt id='50'> +1.7990786e+01 </wgt>
<wgt id='51'> +1.7287763e+01 </wgt>
<wgt id='52'> +1.7401568e+01 </wgt>
<wgt id='53'> +1.7966631e+01 </wgt>
<wgt id='54'> +1.7639929e+01 </wgt>
<wgt id='55'> +1.6569633e+01 </wgt>
<wgt id='56'> +1.7309378e+01 </wgt>
<wgt id='57'> +1.7366157e+01 </wgt>
<wgt id='58'> +1.8327113e+01 </wgt>
<wgt id='59'> +1.7039105e+01 </wgt>
<wgt id='60'> +1.6878507e+01 </wgt>
<wgt id='61'> +1.8077164e+01 </wgt>
<wgt id='62'> +1.7247767e+01 </wgt>
<wgt id='63'> +1.7612169e+01 </wgt>
<wgt id='64'> +1.7995665e+01 </wgt>
<wgt id='65'> +1.9308430e+01 </wgt>
<wgt id='66'> +1.7104236e+01 </wgt>
<wgt id='67'> +1.7670177e+01 </wgt>
<wgt id='68'> +1.7964756e+01 </wgt>
<wgt id='69'> +1.6327885e+01 </wgt>
<wgt id='70'> +1.7517339e+01 </wgt>
<wgt id='71'> +1.7810450e+01 </wgt>
<wgt id='72'> +1.8533620e+01 </wgt>
<wgt id='73'> +1.7751614e+01 </wgt>
<wgt id='74'> +1.7405819e+01 </wgt>
<wgt id='75'> +1.7626576e+01 </wgt>
<wgt id='76'> +1.7400918e+01 </wgt>
<wgt id='77'> +1.6817569e+01 </wgt>
<wgt id='78'> +1.8074542e+01 </wgt>
<wgt id='79'> +1.6830502e+01 </wgt>
<wgt id='80'> +1.7628762e+01 </wgt>
<wgt id='81'> +1.7598217e+01 </wgt>
<wgt id='82'> +1.8135652e+01 </wgt>
<wgt id='83'> +1.7289686e+01 </wgt>
<wgt id='84'> +1.8222100e+01 </wgt>
<wgt id='85'> +1.8101780e+01 </wgt>
<wgt id='86'> +1.7057413e+01 </wgt>
<wgt id='87'> +1.7382677e+01 </wgt>
<wgt id='88'> +1.7350134e+01 </wgt>
<wgt id='89'> +1.7643487e+01 </wgt>
<wgt id='90'> +1.7620881e+01 </wgt>
<wgt id='91'> +1.8459549e+01 </wgt>
<wgt id='92'> +1.7784852e+01 </wgt>
<wgt id='93'> +1.7058020e+01 </wgt>
<wgt id='94'> +1.7917468e+01 </wgt>
<wgt id='95'> +1.7430881e+01 </wgt>
<wgt id='96'> +1.7665181e+01 </wgt>
<wgt id='97'> +1.8024478e+01 </wgt>
<wgt id='98'> +1.6835917e+01 </wgt>
<wgt id='99'> +1.7463940e+01 </wgt>
<wgt id='100'> +1.8503180e+01 </wgt>
<wgt id='101'> +1.7242189e+01 </wgt>
<wgt id='102'> +1.6295990e+01 </wgt>
<wgt id='103'> +1.8182814e+01 </wgt>
<wgt id='104'> +1.7092385e+01 </wgt>
<wgt id='105'> +1.8581269e+01 </wgt>
<wgt id='106'> +1.7616945e+01 </wgt>
<wgt id='107'> +1.8431510e+01 </wgt>
<wgt id='108'> +1.7157971e+01 </wgt>
<wgt id='109'> +1.7453305e+01 </wgt>
<wgt id='110'> +1.7888506e+01 </wgt>
<wgt id='111'> +1.7538949e+01 </wgt>
<wgt id='112'> +1.7477142e+01 </wgt>
<wgt id='113'> +1.7052975e+01 </wgt>
<wgt id='114'> +1.8474776e+01 </wgt>
<wgt id='115'> +1.8187385e+01 </wgt>
<wgt id='116'> +1.6685294e+01 </wgt>
<wgt id='117'> +1.7911246e+01 </wgt>
<wgt id='118'> +1.7147310e+01 </wgt>
<wgt id='119'> +1.7464715e+01 </wgt>
<wgt id='120'> +1.7847353e+01 </wgt>
<wgt id='121'> +1.7659812e+01 </wgt>
<wgt id='122'> +1.7526909e+01 </wgt>
<wgt id='123'> +1.7342178e+01 </wgt>
<wgt id='124'> +1.7534122e+01 </wgt>
<wgt id='125'> +1.7732869e+01 </wgt>
<wgt id='126'> +1.7651946e+01 </wgt>
<wgt id='127'> +1.7625458e+01 </wgt>
<wgt id='128'> +1.6910780e+01 </wgt>
<wgt id='129'> +1.8982586e+01 </wgt>
<wgt id='130'> +1.7156342e+01 </wgt>
<wgt id='131'> +1.8466891e+01 </wgt>
<wgt id='132'> +1.7151771e+01 </wgt>
<wgt id='133'> +1.6920248e+01 </wgt>
<wgt id='134'> +1.6816999e+01 </wgt>
<wgt id='135'> +1.7896872e+01 </wgt>
<wgt id='136'> +1.6872243e+01 </wgt>
<wgt id='137'> +1.6435146e+01 </wgt>
<wgt id='138'> +1.5422435e+01 </wgt>
<wgt id='139'> +1.7586141e+01 </wgt>
<wgt id='140'> +1.8661423e+01 </wgt>
<wgt id='141'> +1.7282205e+01 </wgt>
<wgt id='142'> +1.8335228e+01 </wgt>
<wgt id='143'> +1.7332843e+01 </wgt>
<wgt id='144'> +1.8100009e+01 </wgt>
<wgt id='145'> +1.7499283e+01 </wgt>
</rwgt>
</event>
<event>
 3      1 +1.7556000e+01 1.25000000e+02 7.54677100e-03 1.23506900e-01
       21 -1    0    0  502  501 +0.0000000000e+00 +0.0000000000e+00 +1.2940944831e+02 1.2940944831e+02 0.0000000000e+00 0.0000e+00 1.0000e+00
       21 -1    0    0  501  502 -0.0000000000e+00 -0.0000000000e+00 -3.0185199388e+01 3.0185199388e+01 0.0000000000e+00 0.0000e+00 1.0000e+00
       25  1    1    2    0    0 +0.0000000000e+00 +0.0000000000e+00 +9.9224248925e+01 1.5959464770e+02 1.2500000000e+02 0.0000e+00 0.0000e+00
<mgrwt>
<rscale>  0 0.12500000E+03</rscale>
<asrwt>0</asrwt>
<pdfrwt beam="1">  1       21 0.19909146E-01 0.12500000E+03</pdfrwt>
<pdfrwt beam="2">  1       21 0.46438769E-02 0.12500000E+03</pdfrwt>
<totfact> 0.69569060E+06</totfact>
</mgrwt>
<rwgt>
<wgt id='1'> +1.6683546e+01 </wgt>
<wgt id='2'> +0.0000000e+00 </wgt>
<wgt id='3'> +1.6683546e+01 </wgt>
<wgt id='4'> +1.5428878e+01 </wgt>
<wgt id='5'> +1.6683546e+01 </wgt>
<wgt id='6'> +1.7556000e+01 </wgt>
<wgt id='7'> +0.0000000e+00 </wgt>
<wgt id='8'> +1.7556000e+01 </wgt>
<wgt id='9'> +1.6683546e+01 </wgt>
<wgt id='10'> +1.7556000e+01 </wgt>
<wgt id='11'> +1.7985261e+01 </wgt>
<wgt id='12'> +0.0000000e+00 </wgt>
<wgt id='13'> +1.7985261e+01 </wgt>
<wgt id='14'> +1.7556000e+01 </wgt>
<wgt id='15'> +1.7985261e+01 </wgt>
<wgt id='16'> +1.6683546e+01 </wgt>
<wgt id='17'> +0.0000000e+00 </wgt>
<wgt id='18'> +1.6683546e+01 </wgt>
<wgt id='19'> +1.5428878e+01 </wgt>
<wgt id='20'> +1.6683546e+01 </wgt>
<wgt id='21'> +0.0000000e+00 </wgt>
<wgt id='22'> +1.7556000e+01 </wgt>
<wgt id='23'> +1.6683546e+01 </wgt>
<wgt id='24'> +1.7556000e+01 </wgt>
<wgt id='25'> +1.7985261e+01 </wgt>
<wgt id='26'> +0.0000000e+00 </wgt>
<wgt id='27'> +1.7985261e+01 </wgt>
<wgt id='28'> +1.7556000e+01 </wgt>
<wgt id='29'> +1.7985261e+01 </wgt>
<wgt id='30'> +1.6683546e+01 </wgt>
<wgt id='31'> +0.0000000e+00 </wgt>
<wgt id='32'> +1.6683546e+01 </wgt>
<wgt id='33'> +1.5428878e+01 </wgt>
<wgt id='34'> +1.6683546e+01 </wgt>
<wgt id='35'> +1.7556000e+01 </wgt>
<wgt id='36'> +0.0000000e+00 </wgt>
<wgt id='37'> +1.7556000e+01 </wgt>
<wgt id='38'> +1.6683546e+01 </wgt>
<wgt id='39'> +1.7556000e+01 </wgt>
<wgt id='40'> +1.7985261e+01 </wgt>
<wgt id='41'> +0.0000000e+00 </wgt>
<wgt id='42'> +1.7985261e+01 </wgt>
<wgt id='43'> +1.7556000e+01 </wgt>
<wgt id='44'> +1.7985261e+01 </wgt>
<wgt id='45'> +1.7556000e+01 </wgt>
<wgt id='46'> +1.7037488e+01 </wgt>
<wgt id='47'> +1.7525566e+01 </wgt>
<wgt id='48'> +1.7195440e+01 </wgt>
<wgt id='49'> +1.7599947e+01 </wgt>
<wgt id='50'> +1.8002153e+01 </wgt>
<wgt id='51'> +1.7288933e+01 </wgt>
<wgt id='52'> +1.7402592e+01 </wgt>
<wgt id='53'> +1.7962179e+01 </wgt>
<wgt id='54'> +1.7639637e+01 </wgt>
<wgt id='55'> +1.6564340e+01 </wgt>
<wgt id='56'> +1.7304978e+01 </wgt>
<wgt id='57'> +1.7362743e+01 </wgt>
<wgt id='58'> +1.8323944e+01 </wgt>
<wgt id='59'> +1.7041708e+01 </wgt>
<wgt id='60'> +1.6885283e+01 </wgt>
<wgt id='61'> +1.8071345e+01 </wgt>
<wgt id='62'> +1.7250700e+01 </wgt>
<wgt id='63'> +1.7613111e+01 </wgt>
<wgt id='64'> +1.7992461e+01 </wgt>
<wgt id='65'> +1.9308046e+01 </wgt>
<wgt id='66'> +1.7104451e+01 </wgt>
<wgt id='67'> +1.7669133e+01 </wgt>
<wgt id='68'> +1.7968272e+01 </wgt>
<wgt id='69'> +1.6333576e+01 </wgt>
<wgt id='70'> +1.7514899e+01 </wgt>
<wgt id='71'> +1.7807807e+01 </wgt>
<wgt id='72'> +1.8520006e+01 </wgt>
<wgt id='73'> +1.7751609e+01 </wgt>
<wgt id='74'> +1.7411583e+01 </wgt>
<wgt id='75'> +1.7629303e+01 </wgt>
<wgt id='76'> +1.7395847e+01 </wgt>
<wgt id='77'> +1.6821530e+01 </wgt>
<wgt id='78'> +1.8070728e+01 </wgt>
<wgt id='79'> +1.6834212e+01 </wgt>
<wgt id='80'> +1.7626022e+01 </wgt>
<wgt id='81'> +1.7594705e+01 </wgt>
<wgt id='82'> +1.8135002e+01 </wgt>
<wgt id='83'> +1.7292359e+01 </wgt>
<wgt id='84'> +1.8224009e+01 </wgt>
<wgt id='85'> +1.8106270e+01 </wgt>
<wgt id='86'> +1.7061000e+01 </wgt>
<wgt id='87'> +1.7385333e+01 </wgt>
<wgt id='88'> +1.7350913e+01 </wgt>
<wgt id='89'> +1.7649551e+01 </wgt>
<wgt id='90'> +1.7622924e+01 </wgt>
<wgt id='91'> +1.8459661e+01 </wgt>
<wgt id='92'> +1.7767163e+01 </wgt>
<wgt id='93'> +1.7062986e+01 </wgt>
<wgt id='94'> +1.7913486e+01 </wgt>
<wgt id='95'> +1.7424687e+01 </wgt>
<wgt id='96'> +1.7674298e+01 </wgt>
<wgt id='97'> +1.8021616e+01 </wgt>
<wgt id='98'> +1.6834621e+01 </wgt>
<wgt id='99'> +1.7465690e+01 </wgt>
<wgt id='100'> +1.8496162e+01 </wgt>
<wgt id='101'> +1.7251116e+01 </wgt>
<wgt id='102'> +1.6303450e+01 </wgt>
<wgt id='103'> +1.8189236e+01 </wgt>
<wgt id='104'> +1.7093932e+01 </wgt>
<wgt id='105'> +1.8575207e+01 </wgt>
<wgt id='106'> +1.7605222e+01 </wgt>
<wgt id='107'> +1.8422381e+01 </wgt>
<wgt id='108'> +1.7146934e+01 </wgt>
<wgt id='109'> +1.7447198e+01 </wgt>
<wgt id='110'> +1.7888153e+01 </wgt>
<wgt id='111'> +1.7533866e+01 </wgt>
<wgt id='112'> +1.7472123e+01 </wgt>
<wgt id='113'> +1.7048185e+01 </wgt>
<wgt id='114'> +1.8465359e+01 </wgt>
<wgt id='115'> +1.8179794e+01 </wgt>
<wgt id='116'> +1.6693142e+01 </wgt>
<wgt id='117'> +1.7909526e+01 </wgt>
<wgt id='118'> +1.7155504e+01 </wgt>
<wgt id='119'> +1.7460436e+01 </wgt>
<wgt id='120'> +1.7844386e+01 </wgt>
<wgt id='121'> +1.7656444e+01 </wgt>
<wgt id='122'> +1.7525501e+01 </wgt>
<wgt id='123'> +1.7345224e+01 </wgt>
<wgt id='124'> +1.7541331e+01 </wgt>
<wgt id='125'> +1.7739388e+01 </wgt>
<wgt id='126'> +1.7658704e+01 </wgt>
<wgt id='127'> +1.7630010e+01 </wgt>
<wgt id='128'> +1.6905610e+01 </wgt>
<wgt id='129'> +1.8984189e+01 </wgt>
<wgt id='130'> +1.7157717e+01 </wgt>
<wgt id='131'> +1.8467991e+01 </wgt>
<wgt id='132'> +1.7153006e+01 </wgt>
<wgt id='133'> +1.6925896e+01 </wgt>
<wgt id='134'> +1.6815563e+01 </wgt>
<wgt id='135'> +1.7898172e+01 </wgt>
<wgt id='136'> +1.6872279e+01 </wgt>
<wgt id='137'> +1.6436503e+01 </wgt>
<wgt id='138'> +1.5429500e+01 </wgt>
<wgt id='139'> +1.7590761e+01 </wgt>
<wgt id='140'> +1.8659503e+01 </wgt>
<wgt id='141'> +1.7282171e+01 </wgt>
<wgt id='142'> +1.8331965e+01 </wgt>
<wgt id='143'> +1.7333378e+01 </wgt>
<wgt id='144'> +1.8095034e+01 </wgt>
<wgt id='145'> +1.7498408e+01 </wgt>
</rwgt>
</event>
<event>
 3      1 +1.7556000e+01 1.25000000e+02 7.54677100e-03 1.23506900e-01
       21 -1    0    0  502  501 +0.0000000000e+00 +0.0000000000e+00 +2.1810859386e+02 2.1810859386e+02 0.0000000000e+00 0.0000e+00 -1.0000e+00
       21 -1    0    0  501  502 -0.0000000000e+00 -0.0000000000e+00 -1.7909656520e+01 1.7909656520e+01 0.0000000000e+00 0.0000e+00 -1.0000e+00
       25  1    1    2    0    0 +0.0000000000e+00 +0.0000000000e+00 +2.0019893734e+02 2.3601825038e+02 1.2500000000e+02 0.0000e+00 0.0000e+00
<mgrwt>
<rscale>  0 0.12500000E+03</rscale>
<asrwt>0</asrwt>
<pdfrwt beam="1">  1       21 0.33555167E-01 0.12500000E+03</pdfrwt>
<pdfrwt beam="2">  1       21 0.27553319E-02 0.12500000E+03</pdfrwt>
<totfact> 0.61220110E+06</totfact>
</mgrwt>
<rwgt>
<wgt id='1'> +1.6754397e+01 </wgt>
<wgt id='2'> +0.0000000e+00 </wgt>
<wgt id='3'> +1.6754397e+01 </wgt>
<wgt id='4'> +1.5571417e+01 </wgt>
<wgt id='5'> +1.6754397e+01 </wgt>
<wgt id='6'> +1.7556000e+01 </wgt>
<wgt id='7'> +0.0000000e+00 </wgt>
<wgt id='8'> +1.7556000e+01 </wgt>
<wgt id='9'> +1.6754397e+01 </wgt>
<wgt id='10'> +1.7556000e+01 </wgt>
<wgt id='11'> +1.7918915e+01 </wgt>
<wgt id='12'> +0.0000000e+00 </wgt>
<wgt id='13'> +1.7918915e+01 </wgt>
<wgt id='14'> +1.7556000e+01 </wgt>
<wgt id='15'> +1.7918915e+01 </wgt>
<wgt id='16'> +1.6754397e+01 </wgt>
<wgt id='17'> +0.0000000e+00 </wgt>
<wgt id='18'> +1.6754397e+01 </wgt>
<wgt id='19'> +1.5571417e+01 </wgt>
<wgt id='20'> +1.6754397e+01 </wgt>
<wgt id='21'> +0.0000000e+00 </wgt>
<wgt id='22'> +1.7556000e+01 </wgt>
<wgt id='23'> +1.6754397e+01 </wgt>
<wgt id='24'> +1.7556000e+01 </wgt>
<wgt id='25'> +1.7918915e+01 </wgt>
<wgt id='26'> +0.0000000e+00 </wgt>
<wgt id='27'> +1.7918915e+01 </wgt>
<wgt id='28'> +1.7556000e+01 </wgt>
<wgt id='29'> +1.7918915e+01 </wgt>
<wgt id='30'> +1.6754397e+01 </wgt>
<wgt id='31'> +0.0000000e+00 </wgt>
<wgt id='32'> +1.6754397e+01 </wgt>
<wgt id='33'> +1.5571417e+01 </wgt>
<wgt id='34'> +1.6754397e+01 </wgt>
<wgt id='35'> +1.7556000e+01 </wgt>
<wgt id='36'> +0.0000000e+00 </wgt>
<wgt id='37'> +1.7556000e+01 </wgt>
<wgt id='38'> +1.6754397e+01 </wgt>
<wgt id='39'> +1.7556000e+01 </wgt>
<wgt id='40'> +1.7918915e+01 </wgt>
<wgt id='41'> +0.0000000e+00 </wgt>
<wgt id='42'> +1.7918915e+01 </wgt>
<wgt id='43'> +1.7556000e+01 </wgt>
<wgt id='44'> +1.7918915e+01 </wgt>
<wgt id='45'> +1.7556000e+01 </wgt>
<wgt id='46'> +1.7207843e+01 </wgt>
<wgt id='47'> +1.7592371e+01 </wgt>
<wgt id='48'> +1.7327458e+01 </wgt>
<wgt id='49'> +1.7672695e+01 </wgt>
<wgt id='50'> +1.8337775e+01 </wgt>
<wgt id='51'> +1.7324391e+01 </wgt>
<wgt id='52'> +1.7455596e+01 </wgt>
<wgt id='53'> +1.7804999e+01 </wgt>
<wgt id='54'> +1.7624401e+01 </wgt>
<wgt id='55'> +1.6451084e+01 </wgt>
<wgt id='56'> +1.7161355e+01 </wgt>
<wgt id='57'> +1.7286344e+01 </wgt>
<wgt id='58'> +1.8218761e+01 </wgt>
<wgt id='59'> +1.7164168e+01 </wgt>
<wgt id='60'> +1.7125162e+01 </wgt>
<wgt id='61'> +1.7841936e+01 </wgt>
<wgt id='62'> +1.7337312e+01 </wgt>
<wgt id='63'> +1.7637602e+01 </wgt>
<wgt id='64'> +1.7873076e+01 </wgt>
<wgt id='65'> +1.9259301e+01 </wgt>
<wgt id='66'> +1.7113701e+01 </wgt>
<wgt id='67'> +1.7637379e+01 </wgt>
<wgt id='68'> +1.8079662e+01 </wgt>
<wgt id='69'> +1.6508947e+01 </wgt>
<wgt id='70'> +1.7443474e+01 </wgt>
<wgt id='71'> +1.7738417e+01 </wgt>
<wgt id='72'> +1.8131753e+01 </wgt>
<wgt id='73'> +1.7746540e+01 </wgt>
<wgt id='74'> +1.7593851e+01 </wgt>
<wgt id='75'> +1.7707369e+01 </wgt>
<wgt id='76'> +1.7268603e+01 </wgt>
<wgt id='77'> +1.6959939e+01 </wgt>
<wgt id='78'> +1.7927681e+01 </wgt>
<wgt id='79'> +1.6966209e+01 </wgt>
<wgt id='80'> +1.7542463e+01 </wgt>
<wgt id='81'> +1.7490630e+01 </wgt>
<wgt id='82'> +1.8086747e+01 </wgt>
<wgt id='83'> +1.7362761e+01 </wgt>
<wgt id='84'> +1.8258689e+01 </wgt>
<wgt id='85'> +1.8209478e+01 </wgt>
<wgt id='86'> +1.7170574e+01 </wgt>
<wgt id='87'> +1.7470246e+01 </wgt>
<wgt id='88'> +1.7362977e+01 </wgt>
<wgt id='89'> +1.7833708e+01 </wgt>
<wgt id='90'> +1.7701485e+01 </wgt>
<wgt id='91'> +1.8438629e+01 </wgt>
<wgt id='92'> +1.7290649e+01 </wgt>
<wgt id='93'> +1.7218208e+01 </wgt>
<wgt id='94'> +1.7797830e+01 </wgt>
<wgt id='95'> +1.7261757e+01 </wgt>
<wgt id='96'> +1.7933365e+01 </wgt>
<wgt id='97'> +1.7927513e+01 </wgt>
<wgt id='98'> +1.6819756e+01 </wgt>
<wgt id='99'> +1.7509305e+01 </wgt>
<wgt id='100'> +1.8262681e+01 </wgt>
<wgt id='101'> +1.7546784e+01 </wgt>
<wgt id='102'> +1.6561309e+01 </wgt>
<wgt id='103'> +1.8374376e+01 </wgt>
<wgt id='104'> +1.7137996e+01 </wgt>
<wgt id='105'> +1.8392504e+01 </wgt>
<wgt id='106'> +1.7262206e+01 </wgt>
<wgt id='107'> +1.8130185e+01 </wgt>
<wgt id='108'> +1.6816018e+01 </wgt>
<wgt id='109'> +1.7265619e+01 </wgt>
<wgt id='110'> +1.7877035e+01 </wgt>
<wgt id='111'> +1.7386066e+01 </wgt>
<wgt id='112'> +1.7308166e+01 </wgt>
<wgt id='113'> +1.6912145e+01 </wgt>
<wgt id='114'> +1.8150229e+01 </wgt>
<wgt id='115'> +1.7886581e+01 </wgt>
<wgt id='116'> +1.6940221e+01 </wgt>
<wgt id='117'> +1.7829078e+01 </wgt>
<wgt id='118'> +1.7413420e+01 </wgt>
<wgt id='119'> +1.7341324e+01 </wgt>
<wgt id='120'> +1.7691986e+01 </wgt>
<wgt id='121'> +1.7565040e+01 </wgt>
<wgt id='122'> +1.7484795e+01 </wgt>
<wgt id='123'> +1.7425032e+01 </wgt>
<wgt id='124'> +1.7774950e+01 </wgt>
<wgt id='125'> +1.7949625e+01 </wgt>
<wgt id='126'> +1.7818843e+01 </wgt>
<wgt id='127'> +1.7764078e+01 </wgt>
<wgt id='128'> +1.6733149e+01 </wgt>
<wgt id='129'> +1.9025349e+01 </wgt>
<wgt id='130'> +1.7182914e+01 </wgt>
<wgt id='131'> +1.8482614e+01 </wgt>
<wgt id='132'> +1.7247286e+01 </wgt>
<wgt id='133'> +1.7113737e+01 </wgt>
<wgt id='134'> +1.6802935e+01 </wgt>
<wgt id='135'> +1.7932834e+01 </wgt>
<wgt id='136'> +1.6925532e+01 </wgt>
<wgt id='137'> +1.6485608e+01 </wgt>
<wgt id='138'> +1.5653731e+01 </wgt>
<wgt id='139'> +1.7734685e+01 </wgt>
<wgt id='140'> +1.8575210e+01 </wgt>
<wgt id='141'> +1.7282978e+01 </wgt>
<wgt id='142'> +1.8201687e+01 </wgt>
<wgt id='143'> +1.7382422e+01 </wgt>
<wgt id='144'> +1.7951486e+01 </wgt>
<wgt id='145'> +1.7478349e+01 </wgt>
</rwgt>
</event>
<event>
 3      1 +1.7556000e+01 1.25000000e+02 7.54677100e-03 1.23506900e-01
       21 -1    0    0  502  501 +0.0000000000e+00 +0.0000000000e+00 +1.7831022567e+02 1.7831022567e+02 0.0000000000e+00 0.0000e+00 -1.0000e+00
       21 -1    0    0  501  502 -0.0000000000e+00 -0.0000000000e+00 -2.1907044228e+01 2.1907044228e+01 0.0000000000e+00 0.0000e+00 -1.0000e+00
       25  1    1    2    0    0 +0.0000000000e+00 +0.0000000000e+00 +1.5640318144e+02 2.0021726989e+02 1.2500000000e+02 0.0000e+00 0.0000e+00
<mgrwt>
<rscale>  0 0.12500000E+03</rscale>
<asrwt>0</asrwt>
<pdfrwt beam="1">  1       21 0.27432341E-01 0.12500000E+03</pdfrwt>
<pdfrwt beam="2">  1       21 0.33703146E-02 0.12500000E+03</pdfrwt>
<totfact> 0.64903718E+06</totfact>
</mgrwt>
<rwgt>
<wgt id='1'> +1.6722499e+01 </wgt>
<wgt id='2'> +0.0000000e+00 </wgt>
<wgt id='3'> +1.6722499e+01 </wgt>
<wgt id='4'> +1.5507294e+01 </wgt>
<wgt id='5'> +1.6722499e+01 </wgt>
<wgt id='6'> +1.7556000e+01 </wgt>
<wgt id='7'> +0.0000000e+00 </wgt>
<wgt id='8'> +1.7556000e+01 </wgt>
<wgt id='9'> +1.6722499e+01 </wgt>
<wgt id='10'> +1.7556000e+01 </wgt>
<wgt id='11'> +1.7948826e+01 </wgt>
<wgt id='12'> +0.0000000e+00 </wgt>
<wgt id='13'> +1.7948826e+01 </wgt>
<wgt id='14'> +1.7556000e+01 </wgt>
<wgt id='15'> +1.7948826e+01 </wgt>
<wgt id='16'> +1.6722499e+01 </wgt>
<wgt id='17'> +0.0000000e+00 </wgt>
<wgt id='18'> +1.6722499e+01 </wgt>
<wgt id='19'> +1.5507294e+01 </wgt>
<wgt id='20'> +1.6722499e+01 </wgt>
<wgt id='21'> +0.0000000e+00 </wgt>
<wgt id='22'> +1.7556000e+01 </wgt>
<wgt id='23'> +1.6722499e+01 </wgt>
<wgt id='24'> +1.7556000e+01 </wgt>
<wgt id='25'> +1.7948826e+01 </wgt>
<wgt id='26'> +0.0000000e+00 </wgt>
<wgt id='27'> +1.7948826e+01 </wgt>
<wgt id='28'> +1.7556000e+01 </wgt>
<wgt id='29'> +1.7948826e+01 </wgt>
<wgt id='30'> +1.6722499e+01 </wgt>
<wgt id='31'> +0.0000000e+00 </wgt>
<wgt id='32'> +1.6722499e+01 </wgt>
<wgt id='33'> +1.5507294e+01 </wgt>
<wgt id='34'> +1.6722499e+01 </wgt>
<wgt id='35'> +1.7556000e+01 </wgt>
<wgt id='36'> +0.0000000e+00 </wgt>
<wgt id='37'> +1.7556000e+01 </wgt>
<wgt id='38'> +1.6722499e+01 </wgt>
<wgt id='39'> +1.7556000e+01 </wgt>
<wgt id='40'> +1.7948826e+01 </wgt>
<wgt id='41'> +0.0000000e+00 </wgt>
<wgt id='42'> +1.7948826e+01 </wgt>
<wgt id='43'> +1.7556000e+01 </wgt>
<wgt id='44'> +1.7948826e+01 </wgt>
<wgt id='45'> +1.7556000e+01 </wgt>
<wgt id='46'> +1.7128990e+01 </wgt>
<wgt id='47'> +1.7564203e+01 </wgt>
<wgt id='48'> +1.7268442e+01 </wgt>
<wgt id='49'> +1.7642459e+01 </wgt>
<wgt id='50'> +1.8187061e+01 </wgt>
<wgt id='51'> +1.7308857e+01 </wgt>
<wgt id='52'> +1.7426634e+01 </wgt>
<wgt id='53'> +1.7880858e+01 </wgt>
<wgt id='54'> +1.7632688e+01 </wgt>
<wgt id='55'> +1.6490575e+01 </wgt>
<wgt id='56'> +1.7229863e+01 </wgt>
<wgt id='57'> +1.7313532e+01 </wgt>
<wgt id='58'> +1.8269210e+01 </wgt>
<wgt id='59'> +1.7098054e+01 </wgt>
<wgt id='60'> +1.7010117e+01 </wgt>
<wgt id='61'> +1.7960080e+01 </wgt>
<wgt id='62'> +1.7299362e+01 </wgt>
<wgt id='63'> +1.7627978e+01 </wgt>
<wgt id='64'> +1.7932875e+01 </wgt>
<wgt id='65'> +1.9287640e+01 </wgt>
<wgt id='66'> +1.7109093e+01 </wgt>
<wgt id='67'> +1.7651723e+01 </wgt>
<wgt id='68'> +1.8027634e+01 </wgt>
<wgt id='69'> +1.6428998e+01 </wgt>
<wgt id='70'> +1.7475059e+01 </wgt>
<wgt id='71'> +1.7766669e+01 </wgt>
<wgt id='72'> +1.8300294e+01 </wgt>
<wgt id='73'> +1.7750893e+01 </wgt>
<wgt id='74'> +1.7509755e+01 </wgt>
<wgt id='75'> +1.7673105e+01 </wgt>
<wgt id='76'> +1.7318952e+01 </wgt>
<wgt id='77'> +1.6893716e+01 </wgt>
<wgt id='78'> +1.7999182e+01 </wgt>
<wgt id='79'> +1.6902612e+01 </wgt>
<wgt id='80'> +1.7580338e+01 </wgt>
<wgt id='81'> +1.7537173e+01 </wgt>
<wgt id='82'> +1.8116056e+01 </wgt>
<wgt id='83'> +1.7333216e+01 </wgt>
<wgt id='84'> +1.8247739e+01 </wgt>
<wgt id='85'> +1.8171512e+01 </wgt>
<wgt id='86'> +1.7121086e+01 </wgt>
<wgt id='87'> +1.7431124e+01 </wgt>
<wgt id='88'> +1.7360007e+01 </wgt>
<wgt id='89'> +1.7751204e+01 </wgt>
<wgt id='90'> +1.7661946e+01 </wgt>
<wgt id='91'> +1.8454108e+01 </wgt>
<wgt id='92'> +1.7490441e+01 </wgt>
<wgt id='93'> +1.7147744e+01 </wgt>
<wgt id='94'> +1.7849007e+01 </wgt>
<wgt id='95'> +1.7328381e+01 </wgt>
<wgt id='96'> +1.7820841e+01 </wgt>
<wgt id='97'> +1.7971588e+01 </wgt>
<wgt id='98'> +1.6819950e+01 </wgt>
<wgt id='99'> +1.7493159e+01 </wgt>
<wgt id='100'> +1.8374024e+01 </wgt>
<wgt id='101'> +1.7407016e+01 </wgt>
<wgt id='102'> +1.6437301e+01 </wgt>
<wgt id='103'> +1.8293202e+01 </wgt>
<wgt id='104'> +1.7118512e+01 </wgt>
<wgt id='105'> +1.8473916e+01 </wgt>
<wgt id='106'> +1.7413991e+01 </wgt>
<wgt id='107'> +1.8265923e+01 </wgt>
<wgt id='108'> +1.6964855e+01 </wgt>
<wgt id='109'> +1.7346888e+01 </wgt>
<wgt id='110'> +1.7882693e+01 </wgt>
<wgt id='111'> +1.7450664e+01 </wgt>
<wgt id='112'> +1.7385494e+01 </wgt>
<wgt id='113'> +1.6971652e+01 </wgt>
<wgt id='114'> +1.8298672e+01 </wgt>
<wgt id='115'> +1.8033209e+01 </wgt>
<wgt id='116'> +1.6826673e+01 </wgt>
<wgt id='117'> +1.7871954e+01 </wgt>
<wgt id='118'> +1.7294840e+01 </wgt>
<wgt id='119'> +1.7392474e+01 </wgt>
<wgt id='120'> +1.7776300e+01 </wgt>
<wgt id='121'> +1.7603805e+01 </wgt>
<wgt id='122'> +1.7502549e+01 </wgt>
<wgt id='123'> +1.7392003e+01 </wgt>
<wgt id='124'> +1.7665318e+01 </wgt>
<wgt id='125'> +1.7851158e+01 </wgt>
<wgt id='126'> +1.7756031e+01 </wgt>
<wgt id='127'> +1.7704778e+01 </wgt>
<wgt id='128'> +1.6814968e+01 </wgt>
<wgt id='129'> +1.9007585e+01 </wgt>
<wgt id='130'> +1.7175319e+01 </wgt>
<wgt id='131'> +1.8480539e+01 </wgt>
<wgt id='132'> +1.7190355e+01 </wgt>
<wgt id='133'> +1.7025074e+01 </wgt>
<wgt id='134'> +1.6801335e+01 </wgt>
<wgt id='135'> +1.7918482e+01 </wgt>
<wgt id='136'> +1.6888075e+01 </wgt>
<wgt id='137'> +1.6461646e+01 </wgt>
<wgt id='138'> +1.5550567e+01 </wgt>
<wgt id='139'> +1.7669190e+01 </wgt>
<wgt id='140'> +1.8619299e+01 </wgt>
<wgt id='141'> +1.7281816e+01 </wgt>
<wgt id='142'> +1.8269035e+01 </wgt>
<wgt id='143'> +1.7352403e+01 </wgt>
<wgt id='144'> +1.8014880e+01 </wgt>
<wgt id='145'> +1.7485347e+01 </wgt>
</rwgt>
</event>
<event>
 3      1 +1.7556000e+01 1.25000000e+02 7.54677100e-03 1.23506900e-01
       21 -1    0    0  502  501 +0.0000000000e+00 +0.0000000000e+00 +3.7592571479e+02 3.7592571479e+02 0.0000000000e+00 0.0000e+00 1.0000e+00
       21 -1    0    0  501  502 -0.0000000000e+00 -0.0000000000e+00 -1.0391015688e+01 1.0391015688e+01 0.0000000000e+00 0.0000e+00 1.0000e+00
       25  1    1    2    0    0 +0.0000000000e+00 +0.0000000000e+00 +3.6553469911e+02 3.8631673048e+02 1.2500000000e+02 0.0000e+00 0.0000e+00
<mgrwt>
<rscale>  0 0.12500000E+03</rscale>
<asrwt>0</asrwt>
<pdfrwt beam="1">  1       21 0.57834715E-01 0.12500000E+03</pdfrwt>
<pdfrwt beam="2">  1       21 0.15986181E-02 0.12500000E+03</pdfrwt>
<totfact> 0.48962393E+06</totfact>
</mgrwt>
<rwgt>
<wgt id='1'> +1.6879200e+01 </wgt>
<wgt id='2'> +0.0000000e+00 </wgt>
<wgt id='3'> +1.6879200e+01 </wgt>
<wgt id='4'> +1.5820950e+01 </wgt>
<wgt id='5'> +1.6879200e+01 </wgt>
<wgt id='6'> +1.7556000e+01 </wgt>
<wgt id='7'> +0.0000000e+00 </wgt>
<wgt id='8'> +1.7556000e+01 </wgt>
<wgt id='9'> +1.6879200e+01 </wgt>
<wgt id='10'> +1.7556000e+01 </wgt>
<wgt id='11'> +1.7801005e+01 </wgt>
<wgt id='12'> +0.0000000e+00 </wgt>
<wgt id='13'> +1.7801005e+01 </wgt>
<wgt id='14'> +1.7556000e+01 </wgt>
<wgt id='15'> +1.7801005e+01 </wgt>
<wgt id='16'> +1.6879200e+01 </wgt>
<wgt id='17'> +0.0000000e+00 </wgt>
<wgt id='18'> +1.6879200e+01 </wgt>
<wgt id='19'> +1.5820950e+01 </wgt>
<wgt id='20'> +1.6879200e+01 </wgt>
<wgt id='21'> +0.0000000e+00 </wgt>
<wgt id='22'> +1.7556000e+01 </wgt>
<wgt id='23'> +1.6879200e+01 </wgt>
<wgt id='24'> +1.7556000e+01 </wgt>
<wgt id='25'> +1.7801005e+01 </wgt>
<wgt id='26'> +0.0000000e+00 </wgt>
<wgt id='27'> +1.7801005e+01 </wgt>
<wgt id='28'> +1.7556000e+01 </wgt>
<wgt id='29'> +1.7801005e+01 </wgt>
<wgt id='30'> +1.6879200e+01 </wgt>
<wgt id='31'> +0.0000000e+00 </wgt>
<wgt id='32'> +1.6879200e+01 </wgt>
<wgt id='33'> +1.5820950e+01 </wgt>
<wgt id='34'> +1.6879200e+01 </wgt>
<wgt id='35'> +1.7556000e+01 </wgt>
<wgt id='36'> +0.0000000e+00 </wgt>
<wgt id='37'> +1.7556000e+01 </wgt>
<wgt id='38'> +1.6879200e+01 </wgt>
<wgt id='39'> +1.7556000e+01 </wgt>
<wgt id='40'> +1.7801005e+01 </wgt>
<wgt id='41'> +0.0000000e+00 </wgt>
<wgt id='42'> +1.7801005e+01 </wgt>
<wgt id='43'> +1.7556000e+01 </wgt>
<wgt id='44'> +1.7801005e+01 </wgt>
<wgt id='45'> +1.7556000e+01 </wgt>
<wgt id='46'> +1.7510835e+01 </wgt>
<wgt id='47'> +1.7657004e+01 </wgt>
<wgt id='48'> +1.7522551e+01 </wgt>
<wgt id='49'> +1.7726993e+01 </wgt>
<wgt id='50'> +1.8858856e+01 </wgt>
<wgt id='51'> +1.7358774e+01 </wgt>
<wgt id='52'> +1.7586955e+01 </wgt>
<wgt id='53'> +1.7487439e+01 </wgt>
<wgt id='54'> +1.7610753e+01 </wgt>
<wgt id='55'> +1.6505644e+01 </wgt>
<wgt id='56'> +1.6874834e+01 </wgt>
<wgt id='57'> +1.7310015e+01 </wgt>
<wgt id='58'> +1.7981109e+01 </wgt>
<wgt id='59'> +1.7543123e+01 </wgt>
<wgt id='60'> +1.7606631e+01 </wgt>
<wgt id='61'> +1.7176343e+01 </wgt>
<wgt id='62'> +1.7440355e+01 </wgt>
<wgt id='63'> +1.7660302e+01 </wgt>
<wgt id='64'> +1.7632246e+01 </wgt>
<wgt id='65'> +1.9038104e+01 </wgt>
<wgt id='66'> +1.7136044e+01 </wgt>
<wgt id='67'> +1.7579027e+01 </wgt>
<wgt id='68'> +1.8305354e+01 </wgt>
<wgt id='69'> +1.6812903e+01 </wgt>
<wgt id='70'> +1.7344986e+01 </wgt>
<wgt id='71'> +1.7645980e+01 </wgt>
<wgt id='72'> +1.7626181e+01 </wgt>
<wgt id='73'> +1.7682478e+01 </wgt>
<wgt id='74'> +1.7924556e+01 </wgt>
<wgt id='75'> +1.7816889e+01 </wgt>
<wgt id='76'> +1.7185290e+01 </wgt>
<wgt id='77'> +1.7227682e+01 </wgt>
<wgt id='78'> +1.7573441e+01 </wgt>
<wgt id='79'> +1.7248808e+01 </wgt>
<wgt id='80'> +1.7378158e+01 </wgt>
<wgt id='81'> +1.7335620e+01 </wgt>
<wgt id='82'> +1.7857516e+01 </wgt>
<wgt id='83'> +1.7426331e+01 </wgt>
<wgt id='84'> +1.8217152e+01 </wgt>
<wgt id='85'> +1.8212384e+01 </wgt>
<wgt id='86'> +1.7348519e+01 </wgt>
<wgt id='87'> +1.7613432e+01 </wgt>
<wgt id='88'> +1.7326026e+01 </wgt>
<wgt id='89'> +1.8077052e+01 </wgt>
<wgt id='90'> +1.7874315e+01 </wgt>
<wgt id='91'> +1.8273769e+01 </wgt>
<wgt id='92'> +1.6734949e+01 </wgt>
<wgt id='93'> +1.7470103e+01 </wgt>
<wgt id='94'> +1.7594679e+01 </wgt>
<wgt id='95'> +1.7159752e+01 </wgt>
<wgt id='96'> +1.8238176e+01 </wgt>
<wgt id='97'> +1.7727560e+01 </wgt>
<wgt id='98'> +1.6909555e+01 </wgt>
<wgt id='99'> +1.7493068e+01 </wgt>
<wgt id='100'> +1.7747084e+01 </wgt>
<wgt id='101'> +1.8130683e+01 </wgt>
<wgt id='102'> +1.7116299e+01 </wgt>
<wgt id='103'> +1.8598851e+01 </wgt>
<wgt id='104'> +1.7214418e+01 </wgt>
<wgt id='105'> +1.8126406e+01 </wgt>
<wgt id='106'> +1.6787832e+01 </wgt>
<wgt id='107'> +1.7605119e+01 </wgt>
<wgt id='108'> +1.6318649e+01 </wgt>
<wgt id='109'> +1.7021726e+01 </wgt>
<wgt id='110'> +1.7832069e+01 </wgt>
<wgt id='111'> +1.7198149e+01 </wgt>
<wgt id='112'> +1.7019278e+01 </wgt>
<wgt id='113'> +1.6757570e+01 </wgt>
<wgt id='114'> +1.7626832e+01 </wgt>
<wgt id='115'> +1.7258038e+01 </wgt>
<wgt id='116'> +1.7381766e+01 </wgt>
<wgt id='117'> +1.7611842e+01 </wgt>
<wgt id='118'> +1.7855236e+01 </wgt>
<wgt id='119'> +1.7226313e+01 </wgt>
<wgt id='120'> +1.7311086e+01 </wgt>
<wgt id='121'> +1.7479955e+01 </wgt>
<wgt id='122'> +1.7445093e+01 </wgt>
<wgt id='123'> +1.7503124e+01 </wgt>
<wgt id='124'> +1.8220733e+01 </wgt>
<wgt id='125'> +1.8369665e+01 </wgt>
<wgt id='126'> +1.7956315e+01 </wgt>
<wgt id='127'> +1.7939540e+01 </wgt>
<wgt id='128'> +1.6407615e+01 </wgt>
<wgt id='129'> +1.9050527e+01 </wgt>
<wgt id='130'> +1.7136891e+01 </wgt>
<wgt id='131'> +1.8400208e+01 </wgt>
<wgt id='132'> +1.7636062e+01 </wgt>
<wgt id='133'> +1.7489032e+01 </wgt>
<wgt id='134'> +1.6911676e+01 </wgt>
<wgt id='135'> +1.7946677e+01 </wgt>
<wgt id='136'> +1.7281934e+01 </wgt>
<wgt id='137'> +1.6603381e+01 </wgt>
<wgt id='138'> +1.6058370e+01 </wgt>
<wgt id='139'> +1.7968110e+01 </wgt>
<wgt id='140'> +1.8333223e+01 </wgt>
<wgt id='141'> +1.7320153e+01 </wgt>
<wgt id='142'> +1.7798502e+01 </wgt>
<wgt id='143'> +1.7575650e+01 </wgt>
<wgt id='144'> +1.7711691e+01 </wgt>
<wgt id='145'> +1.7452560e+01 </wgt>
</rwgt>
</event>
<event>
 3      1 +1.7556000e+01 1.25000000e+02 7.54677100e-03 1.23506900e-01
       21 -1    0    0  502  501 +0.0000000000e+00 +0.0000000000e+00 +2.8406187043e+01 2.8406187043e+01 0.0000000000e+00 0.0000e+00 1.0000e+00
       21 -1    0    0  501  502 -0.0000000000e+00 -0.0000000000e+00 -1.3751405615e+02 1.3751405615e+02 0.0000000000e+00 0.0000e+00 1.0000e+00
       25  1    1    2    0    0 +0.0000000000e+00 +0.0000000000e+00 -1.0910786910e+02 1.6592024319e+02 1.2500000000e+02 0.0000e+00 0.0000e+00
<mgrwt>
<rscale>  0 0.12500000E+03</rscale>
<asrwt>0</asrwt>
<pdfrwt beam="1">  1       21 0.43701826E-02 0.12500000E+03</pdfrwt>
<pdfrwt beam="2">  1       21 0.21156009E-01 0.12500000E+03</pdfrwt>
<totfact> 0.68803245E+06</totfact>
</mgrwt>
<rwgt>
<wgt id='1'> +1.6689759e+01 </wgt>
<wgt id='2'> +0.0000000e+00 </wgt>
<wgt id='3'> +1.6689759e+01 </wgt>
<wgt id='4'> +1.5441392e+01 </wgt>
<wgt id='5'> +1.6689759e+01 </wgt>
<wgt id='6'> +1.7556000e+01 </wgt>
<wgt id='7'> +0.0000000e+00 </wgt>
<wgt id='8'> +1.7556000e+01 </wgt>
<wgt id='9'> +1.6689759e+01 </wgt>
<wgt id='10'> +1.7556000e+01 </wgt>
<wgt id='11'> +1.7979453e+01 </wgt>
<wgt id='12'> +0.0000000e+00 </wgt>
<wgt id='13'> +1.7979453e+01 </wgt>
<wgt id='14'> +1.7556000e+01 </wgt>
<wgt id='15'> +1.7979453e+01 </wgt>
<wgt id='16'> +1.6689759e+01 </wgt>
<wgt id='17'> +0.0000000e+00 </wgt>
<wgt id='18'> +1.6689759e+01 </wgt>
<wgt id='19'> +1.5441392e+01 </wgt>
<wgt id='20'> +1.6689759e+01 </wgt>
<wgt id='21'> +0.0000000e+00 </wgt>
<wgt id='22'> +1.7556000e+01 </wgt>
<wgt id='23'> +1.6689759e+01 </wgt>
<wgt id='24'> +1.7556000e+01 </wgt>
<wgt id='25'> +1.7979453e+01 </wgt>
<wgt id='26'> +0.0000000e+00 </wgt>
<wgt id='27'> +1.7979453e+01 </wgt>
<wgt id='28'> +1.7556000e+01 </wgt>
<wgt id='29'> +1.7979453e+01 </wgt>
<wgt id='30'> +1.6689759e+01 </wgt>
<wgt id='31'> +0.0000000e+00 </wgt>
<wgt id='32'> +1.6689759e+01 </wgt>
<wgt id='33'> +1.5441392e+01 </wgt>
<wgt id='34'> +1.6689759e+01 </wgt>
<wgt id='35'> +1.7556000e+01 </wgt>
<wgt id='36'> +0.0000000e+00 </wgt>
<wgt id='37'> +1.7556000e+01 </wgt>
<wgt id='38'> +1.6689759e+01 </wgt>
<wgt id='39'> +1.7556000e+01 </wgt>
<wgt id='40'> +1.7979453e+01 </wgt>
<wgt id='41'> +0.0000000e+00 </wgt>
<wgt id='42'> +1.7979453e+01 </wgt>
<wgt id='43'> +1.7556000e+01 </wgt>
<wgt id='44'> +1.7979453e+01 </wgt>
<wgt id='45'> +1.7556000e+01 </wgt>
<wgt id='46'> +1.7051858e+01 </wgt>
<wgt id='47'> +1.7532026e+01 </wgt>
<wgt id='48'> +1.7207252e+01 </wgt>
<wgt id='49'> +1.7607179e+01 </wgt>
<wgt id='50'> +1.8031932e+01 </wgt>
<wgt id='51'> +1.7292190e+01 </wgt>
<wgt id='52'> +1.7405743e+01 </wgt>
<wgt id='53'> +1.7949840e+01 </wgt>
<wgt id='54'> +1.7638706e+01 </wgt>
<wgt id='55'> +1.6550854e+01 </wgt>
<wgt id='56'> +1.7293383e+01 </wgt>
<wgt id='57'> +1.7353820e+01 </wgt>
<wgt id='58'> +1.8315498e+01 </wgt>
<wgt id='59'> +1.7049178e+01 </wgt>
<wgt id='60'> +1.6904245e+01 </wgt>
<wgt id='61'> +1.8055457e+01 </wgt>
<wgt id='62'> +1.7258679e+01 </wgt>
<wgt id='63'> +1.7615675e+01 </wgt>
<wgt id='64'> +1.7983726e+01 </wgt>
<wgt id='65'> +1.9306030e+01 </wgt>
<wgt id='66'> +1.7105061e+01 </wgt>
<wgt id='67'> +1.7666254e+01 </wgt>
<wgt id='68'> +1.7977432e+01 </wgt>
<wgt id='69'> +1.6348813e+01 </wgt>
<wgt id='70'> +1.7508397e+01 </wgt>
<wgt id='71'> +1.7800693e+01 </wgt>
<wgt id='72'> +1.8483776e+01 </wgt>
<wgt id='73'> +1.7751779e+01 </wgt>
<wgt id='74'> +1.7427095e+01 </wgt>
<wgt id='75'> +1.7636615e+01 </wgt>
<wgt id='76'> +1.7382496e+01 </wgt>
<wgt id='77'> +1.6832551e+01 </wgt>
<wgt id='78'> +1.8060249e+01 </wgt>
<wgt id='79'> +1.6844617e+01 </wgt>
<wgt id='80'> +1.7618670e+01 </wgt>
<wgt id='81'> +1.7585309e+01 </wgt>
<wgt id='82'> +1.8132981e+01 </wgt>
<wgt id='83'> +1.7299261e+01 </wgt>
<wgt id='84'> +1.8228434e+01 </wgt>
<wgt id='85'> +1.8117985e+01 </wgt>
<wgt id='86'> +1.7070644e+01 </wgt>
<wgt id='87'> +1.7392563e+01 </wgt>
<wgt id='88'> +1.7352673e+01 </wgt>
<wgt id='89'> +1.7666004e+01 </wgt>
<wgt id='90'> +1.7628619e+01 </wgt>
<wgt id='91'> +1.8459562e+01 </wgt>
<wgt id='92'> +1.7720600e+01 </wgt>
<wgt id='93'> +1.7076551e+01 </wgt>
<wgt id='94'> +1.7902964e+01 </wgt>
<wgt id='95'> +1.7408269e+01 </wgt>
<wgt id='96'> +1.7698456e+01 </wgt>
<wgt id='97'> +1.8013836e+01 </wgt>
<wgt id='98'> +1.6831430e+01 </wgt>
<wgt id='99'> +1.7470597e+01 </wgt>
<wgt id='100'> +1.8477304e+01 </wgt>
<wgt id='101'> +1.7275193e+01 </wgt>
<wgt id='102'> +1.6323849e+01 </wgt>
<wgt id='103'> +1.8206238e+01 </wgt>
<wgt id='104'> +1.7097913e+01 </wgt>
<wgt id='105'> +1.8558745e+01 </wgt>
<wgt id='106'> +1.7574073e+01 </wgt>
<wgt id='107'> +1.8397789e+01 </wgt>
<wgt id='108'> +1.7117574e+01 </wgt>
<wgt id='109'> +1.7431019e+01 </wgt>
<wgt id='110'> +1.7887330e+01 </wgt>
<wgt id='111'> +1.7520243e+01 </wgt>
<wgt id='112'> +1.7458660e+01 </wgt>
<wgt id='113'> +1.7035698e+01 </wgt>
<wgt id='114'> +1.8439606e+01 </wgt>
<wgt id='115'> +1.8158509e+01 </wgt>
<wgt id='116'> +1.6714270e+01 </wgt>
<wgt id='117'> +1.7904515e+01 </wgt>
<wgt id='118'> +1.7177613e+01 </wgt>
<wgt id='119'> +1.7449151e+01 </wgt>
<wgt id='120'> +1.7835688e+01 </wgt>
<wgt id='121'> +1.7647640e+01 </wgt>
<wgt id='122'> +1.7521747e+01 </wgt>
<wgt id='123'> +1.7353190e+01 </wgt>
<wgt id='124'> +1.7560586e+01 </wgt>
<wgt id='125'> +1.7756804e+01 </wgt>
<wgt id='126'> +1.7676024e+01 </wgt>
<wgt id='127'> +1.7642199e+01 </wgt>
<wgt id='128'> +1.6891650e+01 </wgt>
<wgt id='129'> +1.8988024e+01 </wgt>
<wgt id='130'> +1.7161044e+01 </wgt>
<wgt id='131'> +1.8470603e+01 </wgt>
<wgt id='132'> +1.7156886e+01 </wgt>
<wgt id='133'> +1.6941283e+01 </wgt>
<wgt id='134'> +1.6812159e+01 </wgt>
<wgt id='135'> +1.7901636e+01 </wgt>
<wgt id='136'> +1.6872932e+01 </wgt>
<wgt id='137'> +1.6440293e+01 </wgt>
<wgt id='138'> +1.5448753e+01 </wgt>
<wgt id='139'> +1.7603289e+01 </wgt>
<wgt id='140'> +1.8653948e+01 </wgt>
<wgt id='141'> +1.7281957e+01 </wgt>
<wgt id='142'> +1.8323054e+01 </wgt>
<wgt id='143'> +1.7335187e+01 </wgt>
<wgt id='144'> +1.8081857e+01 </wgt>
<wgt id='145'> +1.7496024e+01 </wgt>
</rwgt>
</event>
<event>
 3      1 +1.7556000e+01 1.25000000e+02 7.54677100e-03 1.23506900e-01
       21 -1    0    0  502  501 +0.0000000000e+00 +0.0000000000e+00 +1.4279568970e+01 1.4279568970e+01 0.0000000000e+00 0.0000e+00 -1.0000e+00
       21 -1    0    0  501  502 -0.0000000000e+00 -0.0000000000e+00 -2.7355517580e+02 2.7355517580e+02 0.0000000000e+00 0.0000e+00 -1.0000e+00
       25  1    1    2    0    0 +0.0000000000e+00 +0.0000000000e+00 -2.5927560683e+02 2.8783474477e+02 1.2500000000e+02 0.0000e+00 0.0000e+00
<mgrwt>
<rscale>  0 0.12500000E+03</rscale>
<asrwt>0</asrwt>
<pdfrwt beam="1">  1       21 0.21968568E-02 0.12500000E+03</pdfrwt>
<pdfrwt beam="2">  1       21 0.42085411E-01 0.12500000E+03</pdfrwt>
<totfact> 0.56482554E+06</totfact>
</mgrwt>
<rwgt>
<wgt id='1'> +1.6800766e+01 </wgt>
<wgt id='2'> +0.0000000e+00 </wgt>
<wgt id='3'> +1.6800766e+01 </wgt>
<wgt id='4'> +1.5664203e+01 </wgt>
<wgt id='5'> +1.6800766e+01 </wgt>
<wgt id='6'> +1.7556000e+01 </wgt>
<wgt id='7'> +0.0000000e+00 </wgt>
<wgt id='8'> +1.7556000e+01 </wgt>
<wgt id='9'> +1.6800766e+01 </wgt>
<wgt id='10'> +1.7556000e+01 </wgt>
<wgt id='11'> +1.7875129e+01 </wgt>
<wgt id='12'> +0.0000000e+00 </wgt>
<wgt id='13'> +1.7875129e+01 </wgt>
<wgt id='14'> +1.7556000e+01 </wgt>
<wgt id='15'> +1.7875129e+01 </wgt>
<wgt id='16'> +1.6800766e+01 </wgt>
<wgt id='17'> +0.0000000e+00 </wgt>
<wgt id='18'> +1.6800766e+01 </wgt>
<wgt id='19'> +1.5664203e+01 </wgt>
<wgt id='20'> +1.6800766e+01 </wgt>
<wgt id='21'> +0.0000000e+00 </wgt>
<wgt id='22'> +1.7556000e+01 </wgt>
<wgt id='23'> +1.6800766e+01 </wgt>
<wgt id='24'> +1.7556000e+01 </wgt>
<wgt id='25'> +1.7875129e+01 </wgt>
<wgt id='26'> +0.0000000e+00 </wgt>
<wgt id='27'> +1.7875129e+01 </wgt>
<wgt id='28'> +1.7556000e+01 </wgt>
<wgt id='29'> +1.7875129e+01 </wgt>
<wgt id='30'> +1.6800766e+01 </wgt>
<wgt id='31'> +0.0000000e+00 </wgt>
<wgt id='32'> +1.6800766e+01 </wgt>
<wgt id='33'> +1.5664203e+01 </wgt>
<wgt id='34'> +1.6800766e+01 </wgt>
<wgt id='35'> +1.7556000e+01 </wgt>
<wgt id='36'> +0.0000000e+00 </wgt>
<wgt id='37'> +1.7556000e+01 </wgt>
<wgt id='38'> +1.6800766e+01 </wgt>
<wgt id='39'> +1.7556000e+01 </wgt>
<wgt id='40'> +1.7875129e+01 </wgt>
<wgt id='41'> +0.0000000e+00 </wgt>
<wgt id='42'> +1.7875129e+01 </wgt>
<wgt id='43'> +1.7556000e+01 </wgt>
<wgt id='44'> +1.7875129e+01 </wgt>
<wgt id='45'> +1.7556000e+01 </wgt>
<wgt id='46'> +1.7317542e+01 </wgt>
<wgt id='47'> +1.7624737e+01 </wgt>
<wgt id='48'> +1.7403869e+01 </wgt>
<wgt id='49'> +1.7703770e+01 </wgt>
<wgt id='50'> +1.8538721e+01 </wgt>
<wgt id='51'> +1.7341800e+01 </wgt>
<wgt id='52'> +1.7500542e+01 </wgt>
<wgt id='53'> +1.7694697e+01 </wgt>
<wgt id='54'> +1.7614900e+01 </wgt>
<wgt id='55'> +1.6430431e+01 </wgt>
<wgt id='56'> +1.7061011e+01 </wgt>
<wgt id='57'> +1.7270471e+01 </wgt>
<wgt id='58'> +1.8141750e+01 </wgt>
<wgt id='59'> +1.7278100e+01 </wgt>
<wgt id='60'> +1.7291860e+01 </wgt>
<wgt id='61'> +1.7643309e+01 </wgt>
<wgt id='62'> +1.7382738e+01 </wgt>
<wgt id='63'> +1.7647888e+01 </wgt>
<wgt id='64'> +1.7785627e+01 </wgt>
<wgt id='65'> +1.9201929e+01 </wgt>
<wgt id='66'> +1.7121109e+01 </wgt>
<wgt id='67'> +1.7617759e+01 </wgt>
<wgt id='68'> +1.8156909e+01 </wgt>
<wgt id='69'> +1.6618822e+01 </wgt>
<wgt id='70'> +1.7403224e+01 </wgt>
<wgt id='71'> +1.7704222e+01 </wgt>
<wgt id='72'> +1.7922996e+01 </wgt>
<wgt id='73'> +1.7732399e+01 </wgt>
<wgt id='74'> +1.7711453e+01 </wgt>
<wgt id='75'> +1.7750028e+01 </wgt>
<wgt id='76'> +1.7218182e+01 </wgt>
<wgt id='77'> +1.7054541e+01 </wgt>
<wgt id='78'> +1.7814541e+01 </wgt>
<wgt id='79'> +1.7060285e+01 </wgt>
<wgt id='80'> +1.7487853e+01 </wgt>
<wgt id='81'> +1.7430351e+01 </wgt>
<wgt id='82'> +1.8026623e+01 </wgt>
<wgt id='83'> +1.7395663e+01 </wgt>
<wgt id='84'> +1.8261458e+01 </wgt>
<wgt id='85'> +1.8237496e+01 </wgt>
<wgt id='86'> +1.7236882e+01 </wgt>
<wgt id='87'> +1.7523414e+01 </wgt>
<wgt id='88'> +1.7359987e+01 </wgt>
<wgt id='89'> +1.7936382e+01 </wgt>
<wgt id='90'> +1.7761144e+01 </wgt>
<wgt id='91'> +1.8400610e+01 </wgt>
<wgt id='92'> +1.7052322e+01 </wgt>
<wgt id='93'> +1.7312237e+01 </wgt>
<wgt id='94'> +1.7726838e+01 </wgt>
<wgt id='95'> +1.7194965e+01 </wgt>
<wgt id='96'> +1.8068609e+01 </wgt>
<wgt id='97'> +1.7861872e+01 </wgt>
<wgt id='98'> +1.6834851e+01 </wgt>
<wgt id='99'> +1.7518177e+01 </wgt>
<wgt id='100'> +1.8094322e+01 </wgt>
<wgt id='101'> +1.7749467e+01 </wgt>
<wgt id='102'> +1.6746525e+01 </wgt>
<wgt id='103'> +1.8473517e+01 </wgt>
<wgt id='104'> +1.7165153e+01 </wgt>
<wgt id='105'> +1.8288313e+01 </wgt>
<wgt id='106'> +1.7069361e+01 </wgt>
<wgt id='107'> +1.7940676e+01 </wgt>
<wgt id='108'> +1.6621133e+01 </wgt>
<wgt id='109'> +1.7162774e+01 </wgt>
<wgt id='110'> +1.7865613e+01 </wgt>
<wgt id='111'> +1.7306611e+01 </wgt>
<wgt id='112'> +1.7200405e+01 </wgt>
<wgt id='113'> +1.6840128e+01 </wgt>
<wgt id='114'> +1.7949113e+01 </wgt>
<wgt id='115'> +1.7668205e+01 </wgt>
<wgt id='116'> +1.7098332e+01 </wgt>
<wgt id='117'> +1.7759292e+01 </wgt>
<wgt id='118'> +1.7575595e+01 </wgt>
<wgt id='119'> +1.7283033e+01 </wgt>
<wgt id='120'> +1.7559473e+01 </wgt>
<wgt id='121'> +1.7521337e+01 </wgt>
<wgt id='122'> +1.7464571e+01 </wgt>
<wgt id='123'> +1.7462331e+01 </wgt>
<wgt id='124'> +1.7932341e+01 </wgt>
<wgt id='125'> +1.8093195e+01 </wgt>
<wgt id='126'> +1.7885934e+01 </wgt>
<wgt id='127'> +1.7837843e+01 </wgt>
<wgt id='128'> +1.6616340e+01 </wgt>
<wgt id='129'> +1.9044788e+01 </wgt>
<wgt id='130'> +1.7181728e+01 </wgt>
<wgt id='131'> +1.8471454e+01 </wgt>
<wgt id='132'> +1.7357154e+01 </wgt>
<wgt id='133'> +1.7242190e+01 </wgt>
<wgt id='134'> +1.6823021e+01 </wgt>
<wgt id='135'> +1.7946129e+01 </wgt>
<wgt id='136'> +1.7013149e+01 </wgt>
<wgt id='137'> +1.6522679e+01 </wgt>
<wgt id='138'> +1.5796703e+01 </wgt>
<wgt id='139'> +1.7822256e+01 </wgt>
<wgt id='140'> +1.8501426e+01 </wgt>
<wgt id='141'> +1.7289882e+01 </wgt>
<wgt id='142'> +1.8084638e+01 </wgt>
<wgt id='143'> +1.7439096e+01 </wgt>
<wgt id='144'> +1.7865764e+01 </wgt>
<wgt id='145'> +1.7470558e+01 </wgt>
</rwgt>
</event>
<event>
 3      1 +1.7556000e+01 1.25000000e+02 7.54677100e-03 1.23506900e-01
       21 -1    0    0  502  501 +0.0000000000e+00 +0.0000000000e+00 +2.6998644619e+01 2.6998644619e+01 0.0000000000e+00 0.0000e+00 1.0000e+00
       21 -1    0    0  501  502 -0.0000000000e+00 -0.0000000000e+00 -1.4468318892e+02 1.4468318892e+02 0.0000000000e+00 0.0000e+00 1.0000e+00
       25  1    1    2    0    0 +0.0000000000e+00 +0.0000000000e+00 -1.1768454430e+02 1.7168183354e+02 1.2500000000e+02 0.0000e+00 0.0000e+00
<mgrwt>
<rscale>  0 0.12500000E+03</rscale>
<asrwt>0</asrwt>
<pdfrwt beam="1">  1       21 0.41536376E-02 0.12500000E+03</pdfrwt>
<pdfrwt beam="2">  1       21 0.22258952E-01 0.12500000E+03</pdfrwt>
<totfact> 0.68118821E+06</totfact>
</mgrwt>
<rwgt>
<wgt id='1'> +1.6694739e+01 </wgt>
<wgt id='2'> +0.0000000e+00 </wgt>
<wgt id='3'> +1.6694739e+01 </wgt>
<wgt id='4'> +1.5451505e+01 </wgt>
<wgt id='5'> +1.6694739e+01 </wgt>
<wgt id='6'> +1.7556000e+01 </wgt>
<wgt id='7'> +0.0000000e+00 </wgt>
<wgt id='8'> +1.7556000e+01 </wgt>
<wgt id='9'> +1.6694739e+01 </wgt>
<wgt id='10'> +1.7556000e+01 </wgt>
<wgt id='11'> +1.7974862e+01 </wgt>
<wgt id='12'> +0.0000000e+00 </wgt>
<wgt id='13'> +1.7974862e+01 </wgt>
<wgt id='14'> +1.7556000e+01 </wgt>
<wgt id='15'> +1.7974862e+01 </wgt>
<wgt id='16'> +1.6694739e+01 </wgt>
<wgt id='17'> +0.0000000e+00 </wgt>
<wgt id='18'> +1.6694739e+01 </wgt>
<wgt id='19'> +1.5451505e+01 </wgt>
<wgt id='20'> +1.6694739e+01 </wgt>
<wgt id='21'> +0.0000000e+00 </wgt>
<wgt id='22'> +1.7556000e+01 </wgt>
<wgt id='23'> +1.6694739e+01 </wgt>
<wgt id='24'> +1.7556000e+01 </wgt>
<wgt id='25'> +1.7974862e+01 </wgt>
<wgt id='26'> +0.0000000e+00 </wgt>
<wgt id='27'> +1.7974862e+01 </wgt>
<wgt id='28'> +1.7556000e+01 </wgt>
<wgt id='29'> +1.7974862e+01 </wgt>
<wgt id='30'> +1.6694739e+01 </wgt>
<wgt id='31'> +0.0000000e+00 </wgt>
<wgt id='32'> +1.6694739e+01 </wgt>
<wgt id='33'> +1.5451505e+01 </wgt>
<wgt id='34'> +1.6694739e+01 </wgt>
<wgt id='35'> +1.7556000e+01 </wgt>
<wgt id='36'> +0.0000000e+00 </wgt>
<wgt id='37'> +1.7556000e+01 </wgt>
<wgt id='38'> +1.6694739e+01 </wgt>
<wgt id='39'> +1.7556000e+01 </wgt>
<wgt id='40'> +1.7974862e+01 </wgt>
<wgt id='41'> +0.0000000e+00 </wgt>
<wgt id='42'> +1.7974862e+01 </wgt>
<wgt id='43'> +1.7556000e+01 </wgt>
<wgt id='44'> +1.7974862e+01 </wgt>
<wgt id='45'> +1.7556000e+01 </wgt>
<wgt id='46'> +1.7065025e+01 </wgt>
<wgt id='47'> +1.7537611e+01 </wgt>
<wgt id='48'> +1.7217995e+01 </wgt>
<wgt id='49'> +1.7613815e+01 </wgt>
<wgt id='50'> +1.8058348e+01 </wgt>
<wgt id='51'> +1.7295239e+01 </wgt>
<wgt id='52'> +1.7409014e+01 </wgt>
<wgt id='53'> +1.7938244e+01 </wgt>
<wgt id='54'> +1.7637720e+01 </wgt>
<wgt id='55'> +1.6539398e+01 </wgt>
<wgt id='56'> +1.7282976e+01 </wgt>
<wgt id='57'> +1.7346031e+01 </wgt>
<wgt id='58'> +1.8307814e+01 </wgt>
<wgt id='59'> +1.7056520e+01 </wgt>
<wgt id='60'> +1.6922201e+01 </wgt>
<wgt id='61'> +1.8040571e+01 </wgt>
<wgt id='62'> +1.7266004e+01 </wgt>
<wgt id='63'> +1.7618021e+01 </wgt>
<wgt id='64'> +1.7975610e+01 </wgt>
<wgt id='65'> +1.9303387e+01 </wgt>
<wgt id='66'> +1.7105629e+01 </wgt>
<wgt id='67'> +1.7663552e+01 </wgt>
<wgt id='68'> +1.7985492e+01 </wgt>
<wgt id='69'> +1.6362643e+01 </wgt>
<wgt id='70'> +1.7502499e+01 </wgt>
<wgt id='71'> +1.7794237e+01 </wgt>
<wgt id='72'> +1.8451229e+01 </wgt>
<wgt id='73'> +1.7752056e+01 </wgt>
<wgt id='74'> +1.7441255e+01 </wgt>
<wgt id='75'> +1.7643272e+01 </wgt>
<wgt id='76'> +1.7370692e+01 </wgt>
<wgt id='77'> +1.6842938e+01 </wgt>
<wgt id='78'> +1.8050430e+01 </wgt>
<wgt id='79'> +1.6854508e+01 </wgt>
<wgt id='80'> +1.7611954e+01 </wgt>
<wgt id='81'> +1.7576790e+01 </wgt>
<wgt id='82'> +1.8130793e+01 </wgt>
<wgt id='83'> +1.7305262e+01 </wgt>
<wgt id='84'> +1.8231782e+01 </wgt>
<wgt id='85'> +1.8128222e+01 </wgt>
<wgt id='86'> +1.7079421e+01 </wgt>
<wgt id='87'> +1.7399227e+01 </wgt>
<wgt id='88'> +1.7353942e+01 </wgt>
<wgt id='89'> +1.7681093e+01 </wgt>
<wgt id='90'> +1.7634032e+01 </wgt>
<wgt id='91'> +1.8459039e+01 </wgt>
<wgt id='92'> +1.7679270e+01 </wgt>
<wgt id='93'> +1.7089094e+01 </wgt>
<wgt id='94'> +1.7893572e+01 </wgt>
<wgt id='95'> +1.7393646e+01 </wgt>
<wgt id='96'> +1.7720068e+01 </wgt>
<wgt id='97'> +1.8006673e+01 </wgt>
<wgt id='98'> +1.6828894e+01 </wgt>
<wgt id='99'> +1.7475185e+01 </wgt>
<wgt id='100'> +1.8460042e+01 </wgt>
<wgt id='101'> +1.7297243e+01 </wgt>
<wgt id='102'> +1.6342809e+01 </wgt>
<wgt id='103'> +1.8221434e+01 </wgt>
<wgt id='104'> +1.7101382e+01 </wgt>
<wgt id='105'> +1.8543641e+01 </wgt>
<wgt id='106'> +1.7546096e+01 </wgt>
<wgt id='107'> +1.8375324e+01 </wgt>
<wgt id='108'> +1.7091130e+01 </wgt>
<wgt id='109'> +1.7416531e+01 </wgt>
<wgt id='110'> +1.7886672e+01 </wgt>
<wgt id='111'> +1.7507930e+01 </wgt>
<wgt id='112'> +1.7446396e+01 </wgt>
<wgt id='113'> +1.7024722e+01 </wgt>
<wgt id='114'> +1.8415764e+01 </wgt>
<wgt id='115'> +1.8138254e+01 </wgt>
<wgt id='116'> +1.6733549e+01 </wgt>
<wgt id='117'> +1.7899564e+01 </wgt>
<wgt id='118'> +1.7197838e+01 </wgt>
<wgt id='119'> +1.7439120e+01 </wgt>
<wgt id='120'> +1.7826984e+01 </wgt>
<wgt id='121'> +1.7639885e+01 </wgt>
<wgt id='122'> +1.7518378e+01 </wgt>
<wgt id='123'> +1.7360216e+01 </wgt>
<wgt id='124'> +1.7578046e+01 </wgt>
<wgt id='125'> +1.7772606e+01 </wgt>
<wgt id='126'> +1.7690840e+01 </wgt>
<wgt id='127'> +1.7653230e+01 </wgt>
<wgt id='128'> +1.6878856e+01 </wgt>
<wgt id='129'> +1.8991069e+01 </wgt>
<wgt id='130'> +1.7163694e+01 </wgt>
<wgt id='131'> +1.8472608e+01 </wgt>
<wgt id='132'> +1.7161078e+01 </wgt>
<wgt id='133'> +1.6955518e+01 </wgt>
<wgt id='134'> +1.6809537e+01 </wgt>
<wgt id='135'> +1.7904747e+01 </wgt>
<wgt id='136'> +1.6874203e+01 </wgt>
<wgt id='137'> +1.6443895e+01 </wgt>
<wgt id='138'> +1.5466542e+01 </wgt>
<wgt id='139'> +1.7614787e+01 </wgt>
<wgt id='140'> +1.8648476e+01 </wgt>
<wgt id='141'> +1.7281671e+01 </wgt>
<wgt id='142'> +1.8314693e+01 </wgt>
<wgt id='143'> +1.7337231e+01 </wgt>
<wgt id='144'> +1.8070026e+01 </wgt>
<wgt id='145'> +1.7493855e+01 </wgt>
</rwgt>
</event>
<event>
 3      1 +1.7556000e+01 1.25000000e+02 7.54677100e-03 1.23506900e-01
       21 -1    0    0  502  501 +0.0000000000e+00 +0.0000000000e+00 +7.6019231478e+02 7.6019231478e+02 0.0000000000e+00 0.0000e+00 1.0000e+00
       21 -1    0    0  501  502 -0.0000000000e+00 -0.0000000000e+00 -5.1385023553e+00 5.1385023553e+00 0.0000000000e+00 0.0000e+00 1.0000e+00
       25  1    1    2    0    0 +0.0000000000e+00 +0.0000000000e+00 +7.5505381243e+02 7.6533081714e+02 1.2500000000e+02 0.0000e+00 0.0000e+00
<mgrwt>
<rscale>  0 0.12500000E+03</rscale>
<asrwt>0</asrwt>
<pdfrwt beam="1">  1       21 0.11695257E+00 0.12500000E+03</pdfrwt>
<pdfrwt beam="2">  1       21 0.79053943E-03 0.12500000E+03</pdfrwt>
<totfact> 0.30536865E+06</totfact>
</mgrwt>
<rwgt>
<wgt id='1'> +1.7177332e+01 </wgt>
<wgt id='2'> +0.0000000e+00 </wgt>
<wgt id='3'> +1.7177332e+01 </wgt>
<wgt id='4'> +1.6412403e+01 </wgt>
<wgt id='5'> +1.7177332e+01 </wgt>
<wgt id='6'> +1.7556000e+01 </wgt>
<wgt id='7'> +0.0000000e+00 </wgt>
<wgt id='8'> +1.7556000e+01 </wgt>
<wgt id='9'> +1.7177332e+01 </wgt>
<wgt id='10'> +1.7556000e+01 </wgt>
<wgt id='11'> +1.7517763e+01 </wgt>
<wgt id='12'> +0.0000000e+00 </wgt>
<wgt id='13'> +1.7517763e+01 </wgt>
<wgt id='14'> +1.7556000e+01 </wgt>
<wgt id='15'> +1.7517763e+01 </wgt>
<wgt id='16'> +1.7177332e+01 </wgt>
<wgt id='17'> +0.0000000e+00 </wgt>
<wgt id='18'> +1.7177332e+01 </wgt>
<wgt id='19'> +1.6412403e+01 </wgt>
<wgt id='20'> +1.7177332e+01 </wgt>
<wgt id='21'> +0.0000000e+00 </wgt>
<wgt id='22'> +1.7556000e+01 </wgt>
<wgt id='23'> +1.7177332e+01 </wgt>
<wgt id='24'> +1.7556000e+01 </wgt>
<wgt id='25'> +1.7517763e+01 </wgt>
<wgt id='26'> +0.0000000e+00 </wgt>
<wgt id='27'> +1.7517763e+01 </wgt>
<wgt id='28'> +1.7556000e+01 </wgt>
<wgt id='29'> +1.7517763e+01 </wgt>
<wgt id='30'> +1.7177332e+01 </wgt>
<wgt id='31'> +0.0000000e+00 </wgt>
<wgt id='32'> +1.7177332e+01 </wgt>
<wgt id='33'> +1.6412403e+01 </wgt>
<wgt id='34'> +1.7177332e+01 </wgt>
<wgt id='35'> +1.7556000e+01 </wgt>
<wgt id='36'> +0.0000000e+00 </wgt>
<wgt id='37'> +1.7556000e+01 </wgt>
<wgt id='38'> +1.7177332e+01 </wgt>
<wgt id='39'> +1.7556000e+01 </wgt>
<wgt id='40'> +1.7517763e+01 </wgt>
<wgt id='41'> +0.0000000e+00 </wgt>
<wgt id='42'> +1.7517763e+01 </wgt>
<wgt id='43'> +1.7556000e+01 </wgt>
<wgt id='44'> +1.7517763e+01 </wgt>
<wgt id='45'> +1.7556000e+01 </wgt>
<wgt id='46'> +1.8016459e+01 </wgt>
<wgt id='47'> +1.7579494e+01 </wgt>
<wgt id='48'> +1.7686306e+01 </wgt>
<wgt id='49'> +1.7446127e+01 </wgt>
<wgt id='50'> +1.9501201e+01 </wgt>
<wgt id='51'> +1.7199387e+01 </wgt>
<wgt id='52'> +1.7643142e+01 </wgt>
<wgt id='53'> +1.6978046e+01 </wgt>
<wgt id='54'> +1.7895076e+01 </wgt>
<wgt id='55'> +1.7694555e+01 </wgt>
<wgt id='56'> +1.6512790e+01 </wgt>
<wgt id='57'> +1.7923649e+01 </wgt>
<wgt id='58'> +1.7209497e+01 </wgt>
<wgt id='59'> +1.8640781e+01 </wgt>
<wgt id='60'> +1.8445197e+01 </wgt>
<wgt id='61'> +1.5240354e+01 </wgt>
<wgt id='62'> +1.7301913e+01 </wgt>
<wgt id='63'> +1.7837207e+01 </wgt>
<wgt id='64'> +1.7483064e+01 </wgt>
<wgt id='65'> +1.7904726e+01 </wgt>
<wgt id='66'> +1.7242382e+01 </wgt>
<wgt id='67'> +1.7428042e+01 </wgt>
<wgt id='68'> +1.8942686e+01 </wgt>
<wgt id='69'> +1.7510445e+01 </wgt>
<wgt id='70'> +1.7431029e+01 </wgt>
<wgt id='71'> +1.7232890e+01 </wgt>
<wgt id='72'> +1.7078202e+01 </wgt>
<wgt id='73'> +1.7200772e+01 </wgt>
<wgt id='74'> +1.8712914e+01 </wgt>
<wgt id='75'> +1.8099293e+01 </wgt>
<wgt id='76'> +1.7478431e+01 </wgt>
<wgt id='77'> +1.7573963e+01 </wgt>
<wgt id='78'> +1.6527229e+01 </wgt>
<wgt id='79'> +1.8026477e+01 </wgt>
<wgt id='80'> +1.6791894e+01 </wgt>
<wgt id='81'> +1.7258911e+01 </wgt>
<wgt id='82'> +1.6971404e+01 </wgt>
<wgt id='83'> +1.7285127e+01 </wgt>
<wgt id='84'> +1.7620434e+01 </wgt>
<wgt id='85'> +1.7514692e+01 </wgt>
<wgt id='86'> +1.7715916e+01 </wgt>
<wgt id='87'> +1.7775810e+01 </wgt>
<wgt id='88'> +1.6992763e+01 </wgt>
<wgt id='89'> +1.7788324e+01 </wgt>
<wgt id='90'> +1.7912350e+01 </wgt>
<wgt id='91'> +1.7237967e+01 </wgt>
<wgt id='92'> +1.6339907e+01 </wgt>
<wgt id='93'> +1.7858835e+01 </wgt>
<wgt id='94'> +1.7001828e+01 </wgt>
<wgt id='95'> +1.7713703e+01 </wgt>
<wgt id='96'> +1.8241562e+01 </wgt>
<wgt id='97'> +1.7061026e+01 </wgt>
<wgt id='98'> +1.7537752e+01 </wgt>
<wgt id='99'> +1.6890245e+01 </wgt>
<wgt id='100'> +1.6089272e+01 </wgt>
<wgt id='101'> +1.9383592e+01 </wgt>
<wgt id='102'> +1.8546840e+01 </wgt>
<wgt id='103'> +1.8335950e+01 </wgt>
<wgt id='104'> +1.7529475e+01 </wgt>
<wgt id='105'> +1.7809741e+01 </wgt>
<wgt id='106'> +1.6501816e+01 </wgt>
<wgt id='107'> +1.6766670e+01 </wgt>
<wgt id='108'> +1.5931612e+01 </wgt>
<wgt id='109'> +1.7082378e+01 </wgt>
<wgt id='110'> +1.7485591e+01 </wgt>
<wgt id='111'> +1.7107420e+01 </wgt>
<wgt id='112'> +1.7025201e+01 </wgt>
<wgt id='113'> +1.7089756e+01 </wgt>
<wgt id='114'> +1.7313604e+01 </wgt>
<wgt id='115'> +1.6209417e+01 </wgt>
<wgt id='116'> +1.8314218e+01 </wgt>
<wgt id='117'> +1.7153102e+01 </wgt>
<wgt id='118'> +1.8512220e+01 </wgt>
<wgt id='119'> +1.7673164e+01 </wgt>
<wgt id='120'> +1.7116497e+01 </wgt>
<wgt id='121'> +1.7662027e+01 </wgt>
<wgt id='122'> +1.7451755e+01 </wgt>
<wgt id='123'> +1.7403146e+01 </wgt>
<wgt id='124'> +1.9086016e+01 </wgt>
<wgt id='125'> +1.9567149e+01 </wgt>
<wgt id='126'> +1.7799143e+01 </wgt>
<wgt id='127'> +1.7868326e+01 </wgt>
<wgt id='128'> +1.6065514e+01 </wgt>
<wgt id='129'> +1.8659468e+01 </wgt>
<wgt id='130'> +1.6735260e+01 </wgt>
<wgt id='131'> +1.7637337e+01 </wgt>
<wgt id='132'> +1.8812713e+01 </wgt>
<wgt id='133'> +1.8413329e+01 </wgt>
<wgt id='134'> +1.7556123e+01 </wgt>
<wgt id='135'> +1.7664709e+01 </wgt>
<wgt id='136'> +1.8970588e+01 </wgt>
<wgt id='137'> +1.7072250e+01 </wgt>
<wgt id='138'> +1.7035523e+01 </wgt>
<wgt id='139'> +1.8296569e+01 </wgt>
<wgt id='140'> +1.7619322e+01 </wgt>
<wgt id='141'> +1.7800059e+01 </wgt>
<wgt id='142'> +1.6146714e+01 </wgt>
<wgt id='143'> +1.8039930e+01 </wgt>
<wgt id='144'> +1.7049434e+01 </wgt>
<wgt id='145'> +1.7056809e+01 </wgt>
</rwgt>
</event>
<event>
 3      1 +1.7556000e+01 1.25000000e+02 7.54677100e-03 1.23506900e-01
       21 -1    0    0  502  501 +0.0000000000e+00 +0.0000000000e+00 +4.6509962844e+00 4.6509962844e+00 0.0000000000e+00 0.0000e+00 -1.0000e+00
       21 -1    0    0  501  502 -0.0000000000e+00 -0.0000000000e+00 -8.3987381651e+02 8.3987381651e+02 0.0000000000e+00 0.0000e+00 -1.0000e+00
       25  1    1    2    0    0 +0.0000000000e+00 +0.0000000000e+00 -8.3522282023e+02 8.4452481280e+02 1.2500000000e+02 0.0000e+00 0.0000e+00
<mgrwt>
<rscale>  0 0.12500000E+03</rscale>
<asrwt>0</asrwt>
<pdfrwt beam="1">  1       21 0.71553690E-03 0.12500000E+03</pdfrwt>
<pdfrwt beam="2">  1       21 0.12921153E+00 0.12500000E+03</pdfrwt>
<totfact> 0.27939686E+06</totfact>
</mgrwt>
<rwgt>
<wgt id='1'> +1.7246995e+01 </wgt>
<wgt id='2'> +0.0000000e+00 </wgt>
<wgt id='3'> +1.7246995e+01 </wgt>
<wgt id='4'> +1.6551119e+01 </wgt>
<wgt id='5'> +1.7246995e+01 </wgt>
<wgt id='6'> +1.7556000e+01 </wgt>
<wgt id='7'> +0.0000000e+00 </wgt>
<wgt id='8'> +1.7556000e+01 </wgt>
<wgt id='9'> +1.7246995e+01 </wgt>
<wgt id='10'> +1.7556000e+01 </wgt>
<wgt id='11'> +1.7452512e+01 </wgt>
<wgt id='12'> +0.0000000e+00 </wgt>
<wgt id='13'> +1.7452512e+01 </wgt>
<wgt id='14'> +1.7556000e+01 </wgt>
<wgt id='15'> +1.7452512e+01 </wgt>
<wgt id='16'> +1.7246995e+01 </wgt>
<wgt id='17'> +0.0000000e+00 </wgt>
<wgt id='18'> +1.7246995e+01 </wgt>
<wgt id='19'> +1.6551119e+01 </wgt>
<wgt id='20'> +1.7246995e+01 </wgt>
<wgt id='21'> +0.0000000e+00 </wgt>
<wgt id='22'> +1.7556000e+01 </wgt>
<wgt id='23'> +1.7246995e+01 </wgt>
<wgt id='24'> +1.7556000e+01 </wgt>
<wgt id='25'> +1.7452512e+01 </wgt>
<wgt id='26'> +0.0000000e+00 </wgt>
<wgt id='27'> +1.7452512e+01 </wgt>
<wgt id='28'> +1.7556000e+01 </wgt>
<wgt id='29'> +1.7452512e+01 </wgt>
<wgt id='30'> +1.7246995e+01 </wgt>
<wgt id='31'> +0.0000000e+00 </wgt>
<wgt id='32'> +1.7246995e+01 </wgt>
<wgt id='33'> +1.6551119e+01 </wgt>
<wgt id='34'> +1.7246995e+01 </wgt>
<wgt id='35'> +1.7556000e+01 </wgt>
<wgt id='36'> +0.0000000e+00 </wgt>
<wgt id='37'> +1.7556000e+01 </wgt>
<wgt id='38'> +1.7246995e+01 </wgt>
<wgt id='39'> +1.7556000e+01 </wgt>
<wgt id='40'> +1.7452512e+01 </wgt>
<wgt id='41'> +0.0000000e+00 </wgt>
<wgt id='42'> +1.7452512e+01 </wgt>
<wgt id='43'> +1.7556000e+01 </wgt>
<wgt id='44'> +1.7452512e+01 </wgt>
<wgt id='45'> +1.7556000e+01 </wgt>
<wgt id='46'> +1.8072980e+01 </wgt>
<wgt id='47'> +1.7554832e+01 </wgt>
<wgt id='48'> +1.7687571e+01 </wgt>
<wgt id='49'> +1.7331390e+01 </wgt>
<wgt id='50'> +1.9544376e+01 </wgt>
<wgt id='51'> +1.7128475e+01 </wgt>
<wgt id='52'> +1.7577430e+01 </wgt>
<wgt id='53'> +1.6945387e+01 </wgt>
<wgt id='54'> +1.7997538e+01 </wgt>
<wgt id='55'> +1.8048620e+01 </wgt>
<wgt id='56'> +1.6538501e+01 </wgt>
<wgt id='57'> +1.8076102e+01 </wgt>
<wgt id='58'> +1.7028529e+01 </wgt>
<wgt id='59'> +1.8825100e+01 </wgt>
<wgt id='60'> +1.8522460e+01 </wgt>
<wgt id='61'> +1.5198907e+01 </wgt>
<wgt id='62'> +1.7208282e+01 </wgt>
<wgt id='63'> +1.7923364e+01 </wgt>
<wgt id='64'> +1.7513414e+01 </wgt>
<wgt id='65'> +1.7589636e+01 </wgt>
<wgt id='66'> +1.7280937e+01 </wgt>
<wgt id='67'> +1.7405299e+01 </wgt>
<wgt id='68'> +1.9118761e+01 </wgt>
<wgt id='69'> +1.7674898e+01 </wgt>
<wgt id='70'> +1.7529960e+01 </wgt>
<wgt id='71'> +1.7090030e+01 </wgt>
<wgt id='72'> +1.6985219e+01 </wgt>
<wgt id='73'> +1.7055960e+01 </wgt>
<wgt id='74'> +1.8892885e+01 </wgt>
<wgt id='75'> +1.8201867e+01 </wgt>
<wgt id='76'> +1.7573971e+01 </wgt>
<wgt id='77'> +1.7563812e+01 </wgt>
<wgt id='78'> +1.6302110e+01 </wgt>
<wgt id='79'> +1.8202755e+01 </wgt>
<wgt id='80'> +1.6622702e+01 </wgt>
<wgt id='81'> +1.7307830e+01 </wgt>
<wgt id='82'> +1.6846151e+01 </wgt>
<wgt id='83'> +1.7230343e+01 </wgt>
<wgt id='84'> +1.7439872e+01 </wgt>
<wgt id='85'> +1.7295991e+01 </wgt>
<wgt id='86'> +1.7798185e+01 </wgt>
<wgt id='87'> +1.7768989e+01 </wgt>
<wgt id='88'> +1.6897612e+01 </wgt>
<wgt id='89'> +1.7560206e+01 </wgt>
<wgt id='90'> +1.7804627e+01 </wgt>
<wgt id='91'> +1.6937563e+01 </wgt>
<wgt id='92'> +1.6341784e+01 </wgt>
<wgt id='93'> +1.7907930e+01 </wgt>
<wgt id='94'> +1.6867637e+01 </wgt>
<wgt id='95'> +1.7876763e+01 </wgt>
<wgt id='96'> +1.8203221e+01 </wgt>
<wgt id='97'> +1.6892970e+01 </wgt>
<wgt id='98'> +1.7711174e+01 </wgt>
<wgt id='99'> +1.6678447e+01 </wgt>
<wgt id='100'> +1.5695671e+01 </wgt>
<wgt id='101'> +1.9588075e+01 </wgt>
<wgt id='102'> +1.8820820e+01 </wgt>
<wgt id='103'> +1.8154058e+01 </wgt>
<wgt id='104'> +1.7634977e+01 </wgt>
<wgt id='105'> +1.7772685e+01 </wgt>
<wgt id='106'> +1.6556902e+01 </wgt>
<wgt id='107'> +1.6691340e+01 </wgt>
<wgt id='108'> +1.5971769e+01 </wgt>
<wgt id='109'> +1.7168215e+01 </wgt>
<wgt id='110'> +1.7361499e+01 </wgt>
<wgt id='111'> +1.7111208e+01 </wgt>
<wgt id='112'> +1.7180272e+01 </wgt>
<wgt id='113'> +1.7275935e+01 </wgt>
<wgt id='114'> +1.7390940e+01 </wgt>
<wgt id='115'> +1.6080989e+01 </wgt>
<wgt id='116'> +1.8485552e+01 </wgt>
<wgt id='117'> +1.7095080e+01 </wgt>
<wgt id='118'> +1.8563371e+01 </wgt>
<wgt id='119'> +1.7883909e+01 </wgt>
<wgt id='120'> +1.7176530e+01 </wgt>
<wgt id='121'> +1.7712271e+01 </wgt>
<wgt id='122'> +1.7446636e+01 </wgt>
<wgt id='123'> +1.7335762e+01 </wgt>
<wgt id='124'> +1.9205949e+01 </wgt>
<wgt id='125'> +1.9854731e+01 </wgt>
<wgt id='126'> +1.7710096e+01 </wgt>
<wgt id='127'> +1.7772289e+01 </wgt>
<wgt id='128'> +1.6108213e+01 </wgt>
<wgt id='129'> +1.8502256e+01 </wgt>
<wgt id='130'> +1.6607778e+01 </wgt>
<wgt id='131'> +1.7397742e+01 </wgt>
<wgt id='132'> +1.8996137e+01 </wgt>
<wgt id='133'> +1.8593835e+01 </wgt>
<wgt id='134'> +1.7715170e+01 </wgt>
<wgt id='135'> +1.7558850e+01 </wgt>
<wgt id='136'> +1.9354423e+01 </wgt>
<wgt id='137'> +1.7212588e+01 </wgt>
<wgt id='138'> +1.7246208e+01 </wgt>
<wgt id='139'> +1.8326241e+01 </wgt>
<wgt id='140'> +1.7483485e+01 </wgt>
<wgt id='141'> +1.7979284e+01 </wgt>
<wgt id='142'> +1.5660862e+01 </wgt>
<wgt id='143'> +1.8087753e+01 </wgt>
<wgt id='144'> +1.6887616e+01 </wgt>
<wgt id='145'> +1.6909348e+01 </wgt>
</rwgt>
</event>
<event>
 3      1 +1.7556000e+01 1.25000000e+02 7.54677100e-03 1.23506900e-01
       21 -1    0    0  502  501 +0.0000000000e+00 +0.0000000000e+00 +3.3309553860e+02 3.3309553860e+02 0.0000000000e+00 0.0000e+00 -1.0000e+00
       21 -1    0    0  501  502 -0.0000000000e+00 -0.0000000000e+00 -1.1727115939e+01 1.1727115939e+01 0.0000000000e+00 0.0000e+00 -1.0000e+00
       25  1    1    2    0    0 +0.0000000000e+00 +0.0000000000e+00 +3.2136842266e+02 3.4482265454e+02 1.2500000000e+02 0.0000e+00 0.0000e+00
<mgrwt>
<rscale>  0 0.12500000E+03</rscale>
<asrwt>0</asrwt>
<pdfrwt beam="1">  1       21 0.51245460E-01 0.12500000E+03</pdfrwt>
<pdfrwt beam="2">  1       21 0.18041719E-02 0.12500000E+03</pdfrwt>
<totfact> 0.51923083E+06</totfact>
</mgrwt>
<rwgt>
<wgt id='1'> +1.6844875e+01 </wgt>
<wgt id='2'> +0.0000000e+00 </wgt>
<wgt id='3'> +1.6844875e+01 </wgt>
<wgt id='4'> +1.5752558e+01 </wgt>
<wgt id='5'> +1.6844875e+01 </wgt>
<wgt id='6'> +1.7556000e+01 </wgt>
<wgt id='7'> +0.0000000e+00 </wgt>
<wgt id='8'> +1.7556000e+01 </wgt>
<wgt id='9'> +1.6844875e+01 </wgt>
<wgt id='10'> +1.7556000e+01 </wgt>
<wgt id='11'> +1.7833585e+01 </wgt>
<wgt id='12'> +0.0000000e+00 </wgt>
<wgt id='13'> +1.7833585e+01 </wgt>
<wgt id='14'> +1.7556000e+01 </wgt>
<wgt id='15'> +1.7833585e+01 </wgt>
<wgt id='16'> +1.6844875e+01 </wgt>
<wgt id='17'> +0.0000000e+00 </wgt>
<wgt id='18'> +1.6844875e+01 </wgt>
<wgt id='19'> +1.5752558e+01 </wgt>
<wgt id='20'> +1.6844875e+01 </wgt>
<wgt id='21'> +0.0000000e+00 </wgt>
<wgt id='22'> +1.7556000e+01 </wgt>
<wgt id='23'> +1.6844875e+01 </wgt>
<wgt id='24'> +1.7556000e+01 </wgt>
<wgt id='25'> +1.7833585e+01 </wgt>
<wgt id='26'> +0.0000000e+00 </wgt>
<wgt id='27'> +1.7833585e+01 </wgt>
<wgt id='28'> +1.7556000e+01 </wgt>
<wgt id='29'> +1.7833585e+01 </wgt>
<wgt id='30'> +1.6844875e+01 </wgt>
<wgt id='31'> +0.0000000e+00 </wgt>
<wgt id='32'> +1.6844875e+01 </wgt>
<wgt id='33'> +1.5752558e+01 </wgt>
<wgt id='34'> +1.6844875e+01 </wgt>
<wgt id='35'> +1.7556000e+01 </wgt>
<wgt id='36'> +0.0000000e+00 </wgt>
<wgt id='37'> +1.7556000e+01 </wgt>
<wgt id='38'> +1.6844875e+01 </wgt>
<wgt id='39'> +1.7556000e+01 </wgt>
<wgt id='40'> +1.7833585e+01 </wgt>
<wgt id='41'> +0.0000000e+00 </wgt>
<wgt id='42'> +1.7833585e+01 </wgt>
<wgt id='43'> +1.7556000e+01 </wgt>
<wgt id='44'> +1.7833585e+01 </wgt>
<wgt id='45'> +1.7556000e+01 </wgt>
<wgt id='46'> +1.7432146e+01 </wgt>
<wgt id='47'> +1.7646340e+01 </wgt>
<wgt id='48'> +1.7476375e+01 </wgt>
<wgt id='49'> +1.7722914e+01 </wgt>
<wgt id='50'> +1.8730797e+01 </wgt>
<wgt id='51'> +1.7354652e+01 </wgt>
<wgt id='52'> +1.7552875e+01 </wgt>
<wgt id='53'> +1.7571624e+01 </wgt>
<wgt id='54'> +1.7608622e+01 </wgt>
<wgt id='55'> +1.6460185e+01 </wgt>
<wgt id='56'> +1.6951174e+01 </wgt>
<wgt id='57'> +1.7284870e+01 </wgt>
<wgt id='58'> +1.8051046e+01 </wgt>
<wgt id='59'> +1.7427752e+01 </wgt>
<wgt id='60'> +1.7477947e+01 </wgt>
<wgt id='61'> +1.7390121e+01 </wgt>
<wgt id='62'> +1.7420963e+01 </wgt>
<wgt id='63'> +1.7654730e+01 </wgt>
<wgt id='64'> +1.7691899e+01 </wgt>
<wgt id='65'> +1.9113212e+01 </wgt>
<wgt id='66'> +1.7129344e+01 </wgt>
<wgt id='67'> +1.7595156e+01 </wgt>
<wgt id='68'> +1.8241104e+01 </wgt>
<wgt id='69'> +1.6732396e+01 </wgt>
<wgt id='70'> +1.7366278e+01 </wgt>
<wgt id='71'> +1.7670972e+01 </wgt>
<wgt id='72'> +1.7739717e+01 </wgt>
<wgt id='73'> +1.7707680e+01 </wgt>
<wgt id='74'> +1.7835809e+01 </wgt>
<wgt id='75'> +1.7789863e+01 </wgt>
<wgt id='76'> +1.7191687e+01 </wgt>
<wgt id='77'> +1.7158045e+01 </wgt>
<wgt id='78'> +1.7677425e+01 </wgt>
<wgt id='79'> +1.7169162e+01 </wgt>
<wgt id='80'> +1.7426152e+01 </wgt>
<wgt id='81'> +1.7371950e+01 </wgt>
<wgt id='82'> +1.7935200e+01 </wgt>
<wgt id='83'> +1.7417156e+01 </wgt>
<wgt id='84'> +1.8240878e+01 </wgt>
<wgt id='85'> +1.8232499e+01 </wgt>
<wgt id='86'> +1.7303078e+01 </wgt>
<wgt id='87'> +1.7577679e+01 </wgt>
<wgt id='88'> +1.7343309e+01 </wgt>
<wgt id='89'> +1.8028028e+01 </wgt>
<wgt id='90'> +1.7829507e+01 </wgt>
<wgt id='91'> +1.8334216e+01 </wgt>
<wgt id='92'> +1.6853919e+01 </wgt>
<wgt id='93'> +1.7407094e+01 </wgt>
<wgt id='94'> +1.7651027e+01 </wgt>
<wgt id='95'> +1.7162671e+01 </wgt>
<wgt id='96'> +1.8177729e+01 </wgt>
<wgt id='97'> +1.7785727e+01 </wgt>
<wgt id='98'> +1.6873230e+01 </wgt>
<wgt id='99'> +1.7510960e+01 </wgt>
<wgt id='100'> +1.7897767e+01 </wgt>
<wgt id='101'> +1.7971593e+01 </wgt>
<wgt id='102'> +1.6959486e+01 </wgt>
<wgt id='103'> +1.8555389e+01 </wgt>
<wgt id='104'> +1.7192468e+01 </wgt>
<wgt id='105'> +1.8188935e+01 </wgt>
<wgt id='106'> +1.6894770e+01 </wgt>
<wgt id='107'> +1.7741380e+01 </wgt>
<wgt id='108'> +1.6435911e+01 </wgt>
<wgt id='109'> +1.7072936e+01 </wgt>
<wgt id='110'> +1.7848793e+01 </wgt>
<wgt id='111'> +1.7238156e+01 </wgt>
<wgt id='112'> +1.7088918e+01 </wgt>
<wgt id='113'> +1.6784628e+01 </wgt>
<wgt id='114'> +1.7750500e+01 </wgt>
<wgt id='115'> +1.7424932e+01 </wgt>
<wgt id='116'> +1.7264647e+01 </wgt>
<wgt id='117'> +1.7673619e+01 </wgt>
<wgt id='118'> +1.7742595e+01 </wgt>
<wgt id='119'> +1.7241893e+01 </wgt>
<wgt id='120'> +1.7406967e+01 </wgt>
<wgt id='121'> +1.7491843e+01 </wgt>
<wgt id='122'> +1.7450968e+01 </wgt>
<wgt id='123'> +1.7489427e+01 </wgt>
<wgt id='124'> +1.8101037e+01 </wgt>
<wgt id='125'> +1.8251501e+01 </wgt>
<wgt id='126'> +1.7933371e+01 </wgt>
<wgt id='127'> +1.7902722e+01 </wgt>
<wgt id='128'> +1.6491418e+01 </wgt>
<wgt id='129'> +1.9052176e+01 </wgt>
<wgt id='130'> +1.7160214e+01 </wgt>
<wgt id='131'> +1.8436836e+01 </wgt>
<wgt id='132'> +1.7512987e+01 </wgt>
<wgt id='133'> +1.7385281e+01 </wgt>
<wgt id='134'> +1.6868941e+01 </wgt>
<wgt id='135'> +1.7950317e+01 </wgt>
<wgt id='136'> +1.7156840e+01 </wgt>
<wgt id='137'> +1.6567809e+01 </wgt>
<wgt id='138'> +1.5949842e+01 </wgt>
<wgt id='139'> +1.7910090e+01 </wgt>
<wgt id='140'> +1.8405982e+01 </wgt>
<wgt id='141'> +1.7303250e+01 </wgt>
<wgt id='142'> +1.7928822e+01 </wgt>
<wgt id='143'> +1.7516629e+01 </wgt>
<wgt id='144'> +1.7776492e+01 </wgt>
<wgt id='145'> +1.7462559e+01 </wgt>
</rwgt>
</event>
<event>
 3      1 +1.7556000e+01 1.25000000e+02 7.54677100e-03 1.23506900e-01
       21 -1    0    0  502  501 +0.0000000000e+00 +0.0000000000e+00 +1.4560739293e+02 1.4560739293e+02 0.0000000000e+00 0.0000e+00 -1.0000e+00
       21 -1    0    0  501  502 -0.0000000000e+00 -0.0000000000e+00 -2.6827277938e+01 2.6827277938e+01 0.0000000000e+00 0.0000e+00 -1.0000e+00
       25  1    1    2    0    0 +0.0000000000e+00 +0.0000000000e+00 +1.1878011499e+02 1.7243467087e+02 1.2500000000e+02 0.0000e+00 0.0000e+00
<mgrwt>
<rscale>  0 0.12500000E+03</rscale>
<asrwt>0</asrwt>
<pdfrwt beam="1">  1       21 0.22401137E-01 0.12500000E+03</pdfrwt>
<pdfrwt beam="2">  1       21 0.41272736E-02 0.12500000E+03</pdfrwt>
<totfact> 0.68030185E+06</totfact>
</mgrwt>
<rwgt>
<wgt id='1'> +1.6695387e+01 </wgt>
<wgt id='2'> +0.0000000e+00 </wgt>
<wgt id='3'> +1.6695387e+01 </wgt>
<wgt id='4'> +1.5452820e+01 </wgt>
<wgt id='5'> +1.6695387e+01 </wgt>
<wgt id='6'> +1.7556000e+01 </wgt>
<wgt id='7'> +0.0000000e+00 </wgt>
<wgt id='8'> +1.7556000e+01 </wgt>
<wgt id='9'> +1.6695387e+01 </wgt>
<wgt id='10'> +1.7556000e+01 </wgt>
<wgt id='11'> +1.7974264e+01 </wgt>
<wgt id='12'> +0.0000000e+00 </wgt>
<wgt id='13'> +1.7974264e+01 </wgt>
<wgt id='14'> +1.7556000e+01 </wgt>
<wgt id='15'> +1.7974264e+01 </wgt>
<wgt id='16'> +1.6695387e+01 </wgt>
<wgt id='17'> +0.0000000e+00 </wgt>
<wgt id='18'> +1.6695387e+01 </wgt>
<wgt id='19'> +1.5452820e+01 </wgt>
<wgt id='20'> +1.6695387e+01 </wgt>
<wgt id='21'> +0.0000000e+00 </wgt>
<wgt id='22'> +1.7556000e+01 </wgt>
<wgt id='23'> +1.6695387e+01 </wgt>
<wgt id='24'> +1.7556000e+01 </wgt>
<wgt id='25'> +1.7974264e+01 </wgt>
<wgt id='26'> +0.0000000e+00 </wgt>
<wgt id='27'> +1.7974264e+01 </wgt>
<wgt id='28'> +1.7556000e+01 </wgt>
<wgt id='29'> +1.7974264e+01 </wgt>
<wgt id='30'> +1.6695387e+01 </wgt>
<wgt id='31'> +0.0000000e+00 </wgt>
<wgt id='32'> +1.6695387e+01 </wgt>
<wgt id='33'> +1.5452820e+01 </wgt>
<wgt id='34'> +1.6695387e+01 </wgt>
<wgt id='35'> +1.7556000e+01 </wgt>
<wgt id='36'> +0.0000000e+00 </wgt>
<wgt id='37'> +1.7556000e+01 </wgt>
<wgt id='38'> +1.6695387e+01 </wgt>
<wgt id='39'> +1.7556000e+01 </wgt>
<wgt id='40'> +1.7974264e+01 </wgt>
<wgt id='41'> +0.0000000e+00 </wgt>
<wgt id='42'> +1.7974264e+01 </wgt>
<wgt id='43'> +1.7556000e+01 </wgt>
<wgt id='44'> +1.7974264e+01 </wgt>
<wgt id='45'> +1.7556000e+01 </wgt>
<wgt id='46'> +1.7066745e+01 </wgt>
<wgt id='47'> +1.7538331e+01 </wgt>
<wgt id='48'> +1.7219387e+01 </wgt>
<wgt id='49'> +1.7614667e+01 </wgt>
<wgt id='50'> +1.8061775e+01 </wgt>
<wgt id='51'> +1.7295635e+01 </wgt>
<wgt id='52'> +1.7409452e+01 </wgt>
<wgt id='53'> +1.7936720e+01 </wgt>
<wgt id='54'> +1.7637588e+01 </wgt>
<wgt id='55'> +1.6537946e+01 </wgt>
<wgt id='56'> +1.7281617e+01 </wgt>
<wgt id='57'> +1.7345042e+01 </wgt>
<wgt id='58'> +1.8306814e+01 </wgt>
<wgt id='59'> +1.7057511e+01 </wgt>
<wgt id='60'> +1.6924564e+01 </wgt>
<wgt id='61'> +1.8038598e+01 </wgt>
<wgt id='62'> +1.7266952e+01 </wgt>
<wgt id='63'> +1.7618321e+01 </wgt>
<wgt id='64'> +1.7974536e+01 </wgt>
<wgt id='65'> +1.9302989e+01 </wgt>
<wgt id='66'> +1.7105710e+01 </wgt>
<wgt id='67'> +1.7663208e+01 </wgt>
<wgt id='68'> +1.7986556e+01 </wgt>
<wgt id='69'> +1.6364438e+01 </wgt>
<wgt id='70'> +1.7501739e+01 </wgt>
<wgt id='71'> +1.7793413e+01 </wgt>
<wgt id='72'> +1.8447024e+01 </wgt>
<wgt id='73'> +1.7752087e+01 </wgt>
<wgt id='74'> +1.7443098e+01 </wgt>
<wgt id='75'> +1.7644122e+01 </wgt>
<wgt id='76'> +1.7369180e+01 </wgt>
<wgt id='77'> +1.6844302e+01 </wgt>
<wgt id='78'> +1.8049131e+01 </wgt>
<wgt id='79'> +1.6855805e+01 </wgt>
<wgt id='80'> +1.7611087e+01 </wgt>
<wgt id='81'> +1.7575692e+01 </wgt>
<wgt id='82'> +1.8130488e+01 </wgt>
<wgt id='83'> +1.7306032e+01 </wgt>
<wgt id='84'> +1.8232205e+01 </wgt>
<wgt id='85'> +1.8129523e+01 </wgt>
<wgt id='86'> +1.7080560e+01 </wgt>
<wgt id='87'> +1.7400096e+01 </wgt>
<wgt id='88'> +1.7354103e+01 </wgt>
<wgt id='89'> +1.7683048e+01 </wgt>
<wgt id='90'> +1.7634748e+01 </wgt>
<wgt id='91'> +1.8458956e+01 </wgt>
<wgt id='92'> +1.7673946e+01 </wgt>
<wgt id='93'> +1.7090722e+01 </wgt>
<wgt id='94'> +1.7892355e+01 </wgt>
<wgt id='95'> +1.7391766e+01 </wgt>
<wgt id='96'> +1.7722860e+01 </wgt>
<wgt id='97'> +1.8005734e+01 </wgt>
<wgt id='98'> +1.6828578e+01 </wgt>
<wgt id='99'> +1.7475771e+01 </wgt>
<wgt id='100'> +1.8457790e+01 </wgt>
<wgt id='101'> +1.7300130e+01 </wgt>
<wgt id='102'> +1.6345296e+01 </wgt>
<wgt id='103'> +1.8223402e+01 </wgt>
<wgt id='104'> +1.7101832e+01 </wgt>
<wgt id='105'> +1.8541686e+01 </wgt>
<wgt id='106'> +1.7542473e+01 </wgt>
<wgt id='107'> +1.8372395e+01 </wgt>
<wgt id='108'> +1.7087702e+01 </wgt>
<wgt id='109'> +1.7414650e+01 </wgt>
<wgt id='110'> +1.7886588e+01 </wgt>
<wgt id='111'> +1.7506334e+01 </wgt>
<wgt id='112'> +1.7444793e+01 </wgt>
<wgt id='113'> +1.7023298e+01 </wgt>
<wgt id='114'> +1.8412638e+01 </wgt>
<wgt id='115'> +1.8135562e+01 </wgt>
<wgt id='116'> +1.6736060e+01 </wgt>
<wgt id='117'> +1.7898893e+01 </wgt>
<wgt id='118'> +1.7200468e+01 </wgt>
<wgt id='119'> +1.7437825e+01 </wgt>
<wgt id='120'> +1.7825799e+01 </wgt>
<wgt id='121'> +1.7638885e+01 </wgt>
<wgt id='122'> +1.7517941e+01 </wgt>
<wgt id='123'> +1.7361117e+01 </wgt>
<wgt id='124'> +1.7580330e+01 </wgt>
<wgt id='125'> +1.7774670e+01 </wgt>
<wgt id='126'> +1.7692731e+01 </wgt>
<wgt id='127'> +1.7654658e+01 </wgt>
<wgt id='128'> +1.6877179e+01 </wgt>
<wgt id='129'> +1.8991465e+01 </wgt>
<wgt id='130'> +1.7164029e+01 </wgt>
<wgt id='131'> +1.8472857e+01 </wgt>
<wgt id='132'> +1.7161674e+01 </wgt>
<wgt id='133'> +1.6957377e+01 </wgt>
<wgt id='134'> +1.6809226e+01 </wgt>
<wgt id='135'> +1.7905145e+01 </wgt>
<wgt id='136'> +1.6874409e+01 </wgt>
<wgt id='137'> +1.6444368e+01 </wgt>
<wgt id='138'> +1.5468850e+01 </wgt>
<wgt id='139'> +1.7616281e+01 </wgt>
<wgt id='140'> +1.8647744e+01 </wgt>
<wgt id='141'> +1.7281638e+01 </wgt>
<wgt id='142'> +1.8313583e+01 </wgt>
<wgt id='143'> +1.7337530e+01 </wgt>
<wgt id='144'> +1.8068501e+01 </wgt>
<wgt id='145'> +1.7493580e+01 </wgt>
</rwgt>
</event>
<event>
 3      1 +1.7556000e+01 1.25000000e+02 7.54677100e-03 1.23506900e-01
       21 -1    0    0  502  501 +0.0000000000e+00 +0.0000000000e+00 +1.2605707687e+01 1.2605707687e+01 0.0000000000e+00 0.0000e+00 -1.0000e+00
       21 -1    0    0  501  502 -0.0000000000e+00 -0.0000000000e+00 -3.0987946866e+02 3.0987946866e+02 0.0000000000e+00 0.0000e+00 -1.0000e+00
       25  1    1    2    0    0 +0.0000000000e+00 +0.0000000000e+00 -2.9727376097e+02 3.2248517634e+02 1.2500000000e+02 0.0000e+00 0.0000e+00
<mgrwt>
<rscale>  0 0.12500000E+03</rscale>
<asrwt>0</asrwt>
<pdfrwt beam="1">  1       21 0.19393398E-02 0.12500000E+03</pdfrwt>
<pdfrwt beam="2">  1       21 0.47673760E-01 0.12500000E+03</pdfrwt>
<totfact> 0.53636993E+06</totfact>
</mgrwt>
<rwgt>
<wgt id='1'> +1.6827945e+01 </wgt>
<wgt id='2'> +0.0000000e+00 </wgt>
<wgt id='3'> +1.6827945e+01 </wgt>
<wgt id='4'> +1.5718649e+01 </wgt>
<wgt id='5'> +1.6827945e+01 </wgt>
<wgt id='6'> +1.7556000e+01 </wgt>
<wgt id='7'> +0.0000000e+00 </wgt>
<wgt id='8'> +1.7556000e+01 </wgt>
<wgt id='9'> +1.6827945e+01 </wgt>
<wgt id='10'> +1.7556000e+01 </wgt>
<wgt id='11'> +1.7849528e+01 </wgt>
<wgt id='12'> +0.0000000e+00 </wgt>
<wgt id='13'> +1.7849528e+01 </wgt>
<wgt id='14'> +1.7556000e+01 </wgt>
<wgt id='15'> +1.7849528e+01 </wgt>
<wgt id='16'> +1.6827945e+01 </wgt>
<wgt id='17'> +0.0000000e+00 </wgt>
<wgt id='18'> +1.6827945e+01 </wgt>
<wgt id='19'> +1.5718649e+01 </wgt>
<wgt id='20'> +1.6827945e+01 </wgt>
<wgt id='21'> +0.0000000e+00 </wgt>
<wgt id='22'> +1.7556000e+01 </wgt>
<wgt id='23'> +1.6827945e+01 </wgt>
<wgt id='24'> +1.7556000e+01 </wgt>
<wgt id='25'> +1.7849528e+01 </wgt>
<wgt id='26'> +0.0000000e+00 </wgt>
<wgt id='27'> +1.7849528e+01 </wgt>
<wgt id='28'> +1.7556000e+01 </wgt>
<wgt id='29'> +1.7849528e+01 </wgt>
<wgt id='30'> +1.6827945e+01 </wgt>
<wgt id='31'> +0.0000000e+00 </wgt>
<wgt id='32'> +1.6827945e+01 </wgt>
<wgt id='33'> +1.5718649e+01 </wgt>
<wgt id='34'> +1.6827945e+01 </wgt>
<wgt id='35'> +1.7556000e+01 </wgt>
<wgt id='36'> +0.0000000e+00 </wgt>
<wgt id='37'> +1.7556000e+01 </wgt>
<wgt id='38'> +1.6827945e+01 </wgt>
<wgt id='39'> +1.7556000e+01 </wgt>
<wgt id='40'> +1.7849528e+01 </wgt>
<wgt id='41'> +0.0000000e+00 </wgt>
<wgt id='42'> +1.7849528e+01 </wgt>
<wgt id='43'> +1.7556000e+01 </wgt>
<wgt id='44'> +1.7849528e+01 </wgt>
<wgt id='45'> +1.7556000e+01 </wgt>
<wgt id='46'> +1.7387998e+01 </wgt>
<wgt id='47'> +1.7639260e+01 </wgt>
<wgt id='48'> +1.7449333e+01 </wgt>
<wgt id='49'> +1.7717298e+01 </wgt>
<wgt id='50'> +1.8658653e+01 </wgt>
<wgt id='51'> +1.7350456e+01 </wgt>
<wgt id='52'> +1.7532646e+01 </wgt>
<wgt id='53'> +1.7619512e+01 </wgt>
<wgt id='54'> +1.7610166e+01 </wgt>
<wgt id='55'> +1.6442884e+01 </wgt>
<wgt id='56'> +1.6993628e+01 </wgt>
<wgt id='57'> +1.7275867e+01 </wgt>
<wgt id='58'> +1.8087122e+01 </wgt>
<wgt id='59'> +1.7366969e+01 </wgt>
<wgt id='60'> +1.7405214e+01 </wgt>
<wgt id='61'> +1.7494157e+01 </wgt>
<wgt id='62'> +1.7407488e+01 </wgt>
<wgt id='63'> +1.7652155e+01 </wgt>
<wgt id='64'> +1.7727639e+01 </wgt>
<wgt id='65'> +1.9151545e+01 </wgt>
<wgt id='66'> +1.7125936e+01 </wgt>
<wgt id='67'> +1.7603939e+01 </wgt>
<wgt id='68'> +1.8207788e+01 </wgt>
<wgt id='69'> +1.6688663e+01 </wgt>
<wgt id='70'> +1.7379759e+01 </wgt>
<wgt id='71'> +1.7683774e+01 </wgt>
<wgt id='72'> +1.7806694e+01 </wgt>
<wgt id='73'> +1.7718529e+01 </wgt>
<wgt id='74'> +1.7787634e+01 </wgt>
<wgt id='75'> +1.7775168e+01 </wgt>
<wgt id='76'> +1.7199109e+01 </wgt>
<wgt id='77'> +1.7117968e+01 </wgt>
<wgt id='78'> +1.7732343e+01 </wgt>
<wgt id='79'> +1.7126073e+01 </wgt>
<wgt id='80'> +1.7450699e+01 </wgt>
<wgt id='81'> +1.7393597e+01 </wgt>
<wgt id='82'> +1.7973576e+01 </wgt>
<wgt id='83'> +1.7410408e+01 </wgt>
<wgt id='84'> +1.8251289e+01 </wgt>
<wgt id='85'> +1.8238278e+01 </wgt>
<wgt id='86'> +1.7277838e+01 </wgt>
<wgt id='87'> +1.7557014e+01 </wgt>
<wgt id='88'> +1.7351142e+01 </wgt>
<wgt id='89'> +1.7995172e+01 </wgt>
<wgt id='90'> +1.7802942e+01 </wgt>
<wgt id='91'> +1.8362802e+01 </wgt>
<wgt id='92'> +1.6925373e+01 </wgt>
<wgt id='93'> +1.7370972e+01 </wgt>
<wgt id='94'> +1.7680706e+01 </wgt>
<wgt id='95'> +1.7170820e+01 </wgt>
<wgt id='96'> +1.8139360e+01 </wgt>
<wgt id='97'> +1.7816140e+01 </wgt>
<wgt id='98'> +1.6856164e+01 </wgt>
<wgt id='99'> +1.7515920e+01 </wgt>
<wgt id='100'> +1.7975969e+01 </wgt>
<wgt id='101'> +1.7884853e+01 </wgt>
<wgt id='102'> +1.6875319e+01 </wgt>
<wgt id='103'> +1.8526535e+01 </wgt>
<wgt id='104'> +1.7181746e+01 </wgt>
<wgt id='105'> +1.8225948e+01 </wgt>
<wgt id='106'> +1.6958806e+01 </wgt>
<wgt id='107'> +1.7817981e+01 </wgt>
<wgt id='108'> +1.6504843e+01 </wgt>
<wgt id='109'> +1.7105301e+01 </wgt>
<wgt id='110'> +1.7855959e+01 </wgt>
<wgt id='111'> +1.7262910e+01 </wgt>
<wgt id='112'> +1.7131005e+01 </wgt>
<wgt id='113'> +1.6803631e+01 </wgt>
<wgt id='114'> +1.7825025e+01 </wgt>
<wgt id='115'> +1.7519799e+01 </wgt>
<wgt id='116'> +1.7200322e+01 </wgt>
<wgt id='117'> +1.7707791e+01 </wgt>
<wgt id='118'> +1.7678836e+01 </wgt>
<wgt id='119'> +1.7255195e+01 </wgt>
<wgt id='120'> +1.7465898e+01 </wgt>
<wgt id='121'> +1.7501294e+01 </wgt>
<wgt id='122'> +1.7455393e+01 </wgt>
<wgt id='123'> +1.7480316e+01 </wgt>
<wgt id='124'> +1.8035517e+01 </wgt>
<wgt id='125'> +1.8189243e+01 </wgt>
<wgt id='126'> +1.7917515e+01 </wgt>
<wgt id='127'> +1.7879338e+01 </wgt>
<wgt id='128'> +1.6539493e+01 </wgt>
<wgt id='129'> +1.9050951e+01 </wgt>
<wgt id='130'> +1.7170592e+01 </wgt>
<wgt id='131'> +1.8452834e+01 </wgt>
<wgt id='132'> +1.7448719e+01 </wgt>
<wgt id='133'> +1.7329188e+01 </wgt>
<wgt id='134'> +1.6848415e+01 </wgt>
<wgt id='135'> +1.7950015e+01 </wgt>
<wgt id='136'> +1.7095664e+01 </wgt>
<wgt id='137'> +1.6549605e+01 </wgt>
<wgt id='138'> +1.5890534e+01 </wgt>
<wgt id='139'> +1.7876785e+01 </wgt>
<wgt id='140'> +1.8444756e+01 </wgt>
<wgt id='141'> +1.7296942e+01 </wgt>
<wgt id='142'> +1.7993032e+01 </wgt>
<wgt id='143'> +1.7484886e+01 </wgt>
<wgt id='144'> +1.7811011e+01 </wgt>
<wgt id='145'> +1.7466023e+01 </wgt>
</rwgt>
</event>
<event>
 3      1 +1.7556000e+01 1.25000000e+02 7.54677100e-03 1.23506900e-01
       21 -1    0    0  502  501 +0.0000000000e+00 +0.0000000000e+00 +1.9682335726e+01 1.9682335726e+01 0.0000000000e+00 0.0000e+00 -1.0000e+00
       21 -1    0    0  501  502 -0.0000000000e+00 -0.0000000000e+00 -1.9846475816e+02 1.9846475816e+02 0.0000000000e+00 0.0000e+00 -1.0000e+00
       25  1    1    2    0    0 +0.0000000000e+00 +0.0000000000e+00 -1.7878242244e+02 2.1814709389e+02 1.2500000000e+02 0.0000e+00 0.0000e+00
<mgrwt>
<rscale>  0 0.12500000E+03</rscale>
<asrwt>0</asrwt>
<pdfrwt beam="1">  1       21 0.30280516E-02 0.12500000E+03</pdfrwt>
<pdfrwt beam="2">  1       21 0.30533040E-01 0.12500000E+03</pdfrwt>
<totfact> 0.63012430E+06</totfact>
</mgrwt>
<rwgt>
<wgt id='1'> +1.6739735e+01 </wgt>
<wgt id='2'> +0.0000000e+00 </wgt>
<wgt id='3'> +1.6739735e+01 </wgt>
<wgt id='4'> +1.5541823e+01 </wgt>
<wgt id='5'> +1.6739735e+01 </wgt>
<wgt id='6'> +1.7556000e+01 </wgt>
<wgt id='7'> +0.0000000e+00 </wgt>
<wgt id='8'> +1.7556000e+01 </wgt>
<wgt id='9'> +1.6739735e+01 </wgt>
<wgt id='10'> +1.7556000e+01 </wgt>
<wgt id='11'> +1.7932571e+01 </wgt>
<wgt id='12'> +0.0000000e+00 </wgt>
<wgt id='13'> +1.7932571e+01 </wgt>
<wgt id='14'> +1.7556000e+01 </wgt>
<wgt id='15'> +1.7932571e+01 </wgt>
<wgt id='16'> +1.6739735e+01 </wgt>
<wgt id='17'> +0.0000000e+00 </wgt>
<wgt id='18'> +1.6739735e+01 </wgt>
<wgt id='19'> +1.5541823e+01 </wgt>
<wgt id='20'> +1.6739735e+01 </wgt>
<wgt id='21'> +0.0000000e+00 </wgt>
<wgt id='22'> +1.7556000e+01 </wgt>
<wgt id='23'> +1.6739735e+01 </wgt>
<wgt id='24'> +1.7556000e+01 </wgt>
<wgt id='25'> +1.7932571e+01 </wgt>
<wgt id='26'> +0.0000000e+00 </wgt>
<wgt id='27'> +1.7932571e+01 </wgt>
<wgt id='28'> +1.7556000e+01 </wgt>
<wgt id='29'> +1.7932571e+01 </wgt>
<wgt id='30'> +1.6739735e+01 </wgt>
<wgt id='31'> +0.0000000e+00 </wgt>
<wgt id='32'> +1.6739735e+01 </wgt>
<wgt id='33'> +1.5541823e+01 </wgt>
<wgt id='34'> +1.6739735e+01 </wgt>
<wgt id='35'> +1.7556000e+01 </wgt>
<wgt id='36'> +0.0000000e+00 </wgt>
<wgt id='37'> +1.7556000e+01 </wgt>
<wgt id='38'> +1.6739735e+01 </wgt>
<wgt id='39'> +1.7556000e+01 </wgt>
<wgt id='40'> +1.7932571e+01 </wgt>
<wgt id='41'> +0.0000000e+00 </wgt>
<wgt id='42'> +1.7932571e+01 </wgt>
<wgt id='43'> +1.7556000e+01 </wgt>
<wgt id='44'> +1.7932571e+01 </wgt>
<wgt id='45'> +1.7556000e+01 </wgt>
<wgt id='46'> +1.7168526e+01 </wgt>
<wgt id='47'> +1.7579248e+01 </wgt>
<wgt id='48'> +1.7298465e+01 </wgt>
<wgt id='49'> +1.7658105e+01 </wgt>
<wgt id='50'> +1.8264661e+01 </wgt>
<wgt id='51'> +1.7316687e+01 </wgt>
<wgt id='52'> +1.7440158e+01 </wgt>
<wgt id='53'> +1.7843672e+01 </wgt>
<wgt id='54'> +1.7628804e+01 </wgt>
<wgt id='55'> +1.6467592e+01 </wgt>
<wgt id='56'> +1.7195380e+01 </wgt>
<wgt id='57'> +1.7298203e+01 </wgt>
<wgt id='58'> +1.8244038e+01 </wgt>
<wgt id='59'> +1.7129205e+01 </wgt>
<wgt id='60'> +1.7066332e+01 </wgt>
<wgt id='61'> +1.7903018e+01 </wgt>
<wgt id='62'> +1.7318687e+01 </wgt>
<wgt id='63'> +1.7633033e+01 </wgt>
<wgt id='64'> +1.7903544e+01 </wgt>
<wgt id='65'> +1.9275954e+01 </wgt>
<wgt id='66'> +1.7111293e+01 </wgt>
<wgt id='67'> +1.7644573e+01 </wgt>
<wgt id='68'> +1.8053996e+01 </wgt>
<wgt id='69'> +1.6469470e+01 </wgt>
<wgt id='70'> +1.7458799e+01 </wgt>
<wgt id='71'> +1.7752003e+01 </wgt>
<wgt id='72'> +1.8213315e+01 </wgt>
<wgt id='73'> +1.7748807e+01 </wgt>
<wgt id='74'> +1.7552055e+01 </wgt>
<wgt id='75'> +1.7690709e+01 </wgt>
<wgt id='76'> +1.7291980e+01 </wgt>
<wgt id='77'> +1.6926209e+01 </wgt>
<wgt id='78'> +1.7964369e+01 </wgt>
<wgt id='79'> +1.6933616e+01 </wgt>
<wgt id='80'> +1.7561187e+01 </wgt>
<wgt id='81'> +1.7513430e+01 </wgt>
<wgt id='82'> +1.8102840e+01 </wgt>
<wgt id='83'> +1.7348968e+01 </wgt>
<wgt id='84'> +1.8255054e+01 </wgt>
<wgt id='85'> +1.8192636e+01 </wgt>
<wgt id='86'> +1.7146164e+01 </wgt>
<wgt id='87'> +1.7450720e+01 </wgt>
<wgt id='88'> +1.7362403e+01 </wgt>
<wgt id='89'> +1.7793018e+01 </wgt>
<wgt id='90'> +1.7681117e+01 </wgt>
<wgt id='91'> +1.8447826e+01 </wgt>
<wgt id='92'> +1.7385703e+01 </wgt>
<wgt id='93'> +1.7183123e+01 </wgt>
<wgt id='94'> +1.7822838e+01 </wgt>
<wgt id='95'> +1.7293086e+01 </wgt>
<wgt id='96'> +1.7879171e+01 </wgt>
<wgt id='97'> +1.7949724e+01 </wgt>
<wgt id='98'> +1.6818445e+01 </wgt>
<wgt id='99'> +1.7501658e+01 </wgt>
<wgt id='100'> +1.8318597e+01 </wgt>
<wgt id='101'> +1.7476735e+01 </wgt>
<wgt id='102'> +1.6498445e+01 </wgt>
<wgt id='103'> +1.8335161e+01 </wgt>
<wgt id='104'> +1.7128669e+01 </wgt>
<wgt id='105'> +1.8432698e+01 </wgt>
<wgt id='106'> +1.7336023e+01 </wgt>
<wgt id='107'> +1.8197793e+01 </wgt>
<wgt id='108'> +1.6888848e+01 </wgt>
<wgt id='109'> +1.7305163e+01 </wgt>
<wgt id='110'> +1.7879785e+01 </wgt>
<wgt id='111'> +1.7417515e+01 </wgt>
<wgt id='112'> +1.7346732e+01 </wgt>
<wgt id='113'> +1.6940576e+01 </wgt>
<wgt id='114'> +1.8224744e+01 </wgt>
<wgt id='115'> +1.7962083e+01 </wgt>
<wgt id='116'> +1.6883821e+01 </wgt>
<wgt id='117'> +1.7851716e+01 </wgt>
<wgt id='118'> +1.7354515e+01 </wgt>
<wgt id='119'> +1.7365770e+01 </wgt>
<wgt id='120'> +1.7736710e+01 </wgt>
<wgt id='121'> +1.7583373e+01 </wgt>
<wgt id='122'> +1.7493360e+01 </wgt>
<wgt id='123'> +1.7409518e+01 </wgt>
<wgt id='124'> +1.7720389e+01 </wgt>
<wgt id='125'> +1.7900605e+01 </wgt>
<wgt id='126'> +1.7789829e+01 </wgt>
<wgt id='127'> +1.7735144e+01 </wgt>
<wgt id='128'> +1.6774191e+01 </wgt>
<wgt id='129'> +1.9017443e+01 </wgt>
<wgt id='130'> +1.7180318e+01 </wgt>
<wgt id='131'> +1.8482854e+01 </wgt>
<wgt id='132'> +1.7216185e+01 </wgt>
<wgt id='133'> +1.7069103e+01 </wgt>
<wgt id='134'> +1.6800348e+01 </wgt>
<wgt id='135'> +1.7926078e+01 </wgt>
<wgt id='136'> +1.6904053e+01 </wgt>
<wgt id='137'> +1.6473294e+01 </wgt>
<wgt id='138'> +1.5602180e+01 </wgt>
<wgt id='139'> +1.7702173e+01 </wgt>
<wgt id='140'> +1.8598476e+01 </wgt>
<wgt id='141'> +1.7282392e+01 </wgt>
<wgt id='142'> +1.8236562e+01 </wgt>
<wgt id='143'> +1.7365910e+01 </wgt>
<wgt id='144'> +1.7982384e+01 </wgt>
<wgt id='145'> +1.7481579e+01 </wgt>
</rwgt>
</event>
<event>
 3      1 +1.7556000e+01 1.25000000e+02 7.54677100e-03 1.23506900e-01
       21 -1    0    0  502  501 +0.0000000000e+00 +0.0000000000e+00 +1.0256146049e+01 1.0256146049e+01 0.0000000000e+00 0.0000e+00 1.0000e+00
       21 -1    0    0  501  502 -0.0000000000e+00 -0.0000000000e+00 -3.8086918627e+02 3.8086918627e+02 0.0000000000e+00 0.0000e+00 1.0000e+00
       25  1    1    2    0    0 +0.0000000000e+00 +0.0000000000e+00 -3.7061304022e+02 3.9112533232e+02 1.2500000000e+02 0.0000e+00 0.0000e+00
<mgrwt>
<rscale>  0 0.12500000E+03</rscale>
<asrwt>0</asrwt>
<pdfrwt beam="1">  1       21 0.15778687E-02 0.12500000E+03</pdfrwt>
<pdfrwt beam="2">  1       21 0.58595255E-01 0.12500000E+03</pdfrwt>
<totfact> 0.48635624E+06</totfact>
</mgrwt>
<rwgt>
<wgt id='1'> +1.6883314e+01 </wgt>
<wgt id='2'> +0.0000000e+00 </wgt>
<wgt id='3'> +1.6883314e+01 </wgt>
<wgt id='4'> +1.5829119e+01 </wgt>
<wgt id='5'> +1.6883314e+01 </wgt>
<wgt id='6'> +1.7556000e+01 </wgt>
<wgt id='7'> +0.0000000e+00 </wgt>
<wgt id='8'> +1.7556000e+01 </wgt>
<wgt id='9'> +1.6883314e+01 </wgt>
<wgt id='10'> +1.7556000e+01 </wgt>
<wgt id='11'> +1.7797081e+01 </wgt>
<wgt id='12'> +0.0000000e+00 </wgt>
<wgt id='13'> +1.7797081e+01 </wgt>
<wgt id='14'> +1.7556000e+01 </wgt>
<wgt id='15'> +1.7797081e+01 </wgt>
<wgt id='16'> +1.6883314e+01 </wgt>
<wgt id='17'> +0.0000000e+00 </wgt>
<wgt id='18'> +1.6883314e+01 </wgt>
<wgt id='19'> +1.5829119e+01 </wgt>
<wgt id='20'> +1.6883314e+01 </wgt>
<wgt id='21'> +0.0000000e+00 </wgt>
<wgt id='22'> +1.7556000e+01 </wgt>
<wgt id='23'> +1.6883314e+01 </wgt>
<wgt id='24'> +1.7556000e+01 </wgt>
<wgt id='25'> +1.7797081e+01 </wgt>
<wgt id='26'> +0.0000000e+00 </wgt>
<wgt id='27'> +1.7797081e+01 </wgt>
<wgt id='28'> +1.7556000e+01 </wgt>
<wgt id='29'> +1.7797081e+01 </wgt>
<wgt id='30'> +1.6883314e+01 </wgt>
<wgt id='31'> +0.0000000e+00 </wgt>
<wgt id='32'> +1.6883314e+01 </wgt>
<wgt id='33'> +1.5829119e+01 </wgt>
<wgt id='34'> +1.6883314e+01 </wgt>
<wgt id='35'> +1.7556000e+01 </wgt>
<wgt id='36'> +0.0000000e+00 </wgt>
<wgt id='37'> +1.7556000e+01 </wgt>
<wgt id='38'> +1.6883314e+01 </wgt>
<wgt id='39'> +1.7556000e+01 </wgt>
<wgt id='40'> +1.7797081e+01 </wgt>
<wgt id='41'> +0.0000000e+00 </wgt>
<wgt id='42'> +1.7797081e+01 </wgt>
<wgt id='43'> +1.7556000e+01 </wgt>
<wgt id='44'> +1.7797081e+01 </wgt>
<wgt id='45'> +1.7556000e+01 </wgt>
<wgt id='46'> +1.7519623e+01 </wgt>
<wgt id='47'> +1.7657983e+01 </wgt>
<wgt id='48'> +1.7527581e+01 </wgt>
<wgt id='49'> +1.7726936e+01 </wgt>
<wgt id='50'> +1.8873038e+01 </wgt>
<wgt id='51'> +1.7358933e+01 </wgt>
<wgt id='52'> +1.7590580e+01 </wgt>
<wgt id='53'> +1.7478175e+01 </wgt>
<wgt id='54'> +1.7611489e+01 </wgt>
<wgt id='55'> +1.6512134e+01 </wgt>
<wgt id='56'> +1.6866272e+01 </wgt>
<wgt id='57'> +1.7313695e+01 </wgt>
<wgt id='58'> +1.7972751e+01 </wgt>
<wgt id='59'> +1.7556664e+01 </wgt>
<wgt id='60'> +1.7620924e+01 </wgt>
<wgt id='61'> +1.7148936e+01 </wgt>
<wgt id='62'> +1.7442112e+01 </wgt>
<wgt id='63'> +1.7661014e+01 </wgt>
<wgt id='64'> +1.7626081e+01 </wgt>
<wgt id='65'> +1.9029142e+01 </wgt>
<wgt id='66'> +1.7136825e+01 </wgt>
<wgt id='67'> +1.7577135e+01 </wgt>
<wgt id='68'> +1.8312976e+01 </wgt>
<wgt id='69'> +1.6822184e+01 </wgt>
<wgt id='70'> +1.7342858e+01 </wgt>
<wgt id='71'> +1.7642915e+01 </wgt>
<wgt id='72'> +1.7614041e+01 </wgt>
<wgt id='73'> +1.7679149e+01 </wgt>
<wgt id='74'> +1.7934765e+01 </wgt>
<wgt id='75'> +1.7820080e+01 </wgt>
<wgt id='76'> +1.7185216e+01 </wgt>
<wgt id='77'> +1.7235303e+01 </wgt>
<wgt id='78'> +1.7561285e+01 </wgt>
<wgt id='79'> +1.7258015e+01 </wgt>
<wgt id='80'> +1.7372335e+01 </wgt>
<wgt id='81'> +1.7331743e+01 </wgt>
<wgt id='82'> +1.7847874e+01 </wgt>
<wgt id='83'> +1.7427090e+01 </wgt>
<wgt id='84'> +1.8213932e+01 </wgt>
<wgt id='85'> +1.8209249e+01 </wgt>
<wgt id='86'> +1.7353644e+01 </wgt>
<wgt id='87'> +1.7617339e+01 </wgt>
<wgt id='88'> +1.7323691e+01 </wgt>
<wgt id='89'> +1.8081666e+01 </wgt>
<wgt id='90'> +1.7879060e+01 </wgt>
<wgt id='91'> +1.8266068e+01 </wgt>
<wgt id='92'> +1.6722403e+01 </wgt>
<wgt id='93'> +1.7477044e+01 </wgt>
<wgt id='94'> +1.7588060e+01 </wgt>
<wgt id='95'> +1.7160551e+01 </wgt>
<wgt id='96'> +1.8244144e+01 </wgt>
<wgt id='97'> +1.7720691e+01 </wgt>
<wgt id='98'> +1.6914147e+01 </wgt>
<wgt id='99'> +1.7490260e+01 </wgt>
<wgt id='100'> +1.7729157e+01 </wgt>
<wgt id='101'> +1.8148854e+01 </wgt>
<wgt id='102'> +1.7134482e+01 </wgt>
<wgt id='103'> +1.8602923e+01 </wgt>
<wgt id='104'> +1.7217132e+01 </wgt>
<wgt id='105'> +1.8119708e+01 </wgt>
<wgt id='106'> +1.6776618e+01 </wgt>
<wgt id='107'> +1.7589937e+01 </wgt>
<wgt id='108'> +1.6306107e+01 </wgt>
<wgt id='109'> +1.7016699e+01 </wgt>
<wgt id='110'> +1.7829825e+01 </wgt>
<wgt id='111'> +1.7194087e+01 </wgt>
<wgt id='112'> +1.7012053e+01 </wgt>
<wgt id='113'> +1.6755281e+01 </wgt>
<wgt id='114'> +1.7613975e+01 </wgt>
<wgt id='115'> +1.7239756e+01 </wgt>
<wgt id='116'> +1.7395101e+01 </wgt>
<wgt id='117'> +1.7604918e+01 </wgt>
<wgt id='118'> +1.7867765e+01 </wgt>
<wgt id='119'> +1.7225367e+01 </wgt>
<wgt id='120'> +1.7301525e+01 </wgt>
<wgt id='121'> +1.7479152e+01 </wgt>
<wgt id='122'> +1.7444688e+01 </wgt>
<wgt id='123'> +1.7504444e+01 </wgt>
<wgt id='124'> +1.8234338e+01 </wgt>
<wgt id='125'> +1.8383539e+01 </wgt>
<wgt id='126'> +1.7958409e+01 </wgt>
<wgt id='127'> +1.7943209e+01 </wgt>
<wgt id='128'> +1.6398474e+01 </wgt>
<wgt id='129'> +1.9049916e+01 </wgt>
<wgt id='130'> +1.7133675e+01 </wgt>
<wgt id='131'> +1.8395275e+01 </wgt>
<wgt id='132'> +1.7650558e+01 </wgt>
<wgt id='133'> +1.7501014e+01 </wgt>
<wgt id='134'> +1.6917013e+01 </wgt>
<wgt id='135'> +1.7945882e+01 </wgt>
<wgt id='136'> +1.7297455e+01 </wgt>
<wgt id='137'> +1.6607677e+01 </wgt>
<wgt id='138'> +1.6070852e+01 </wgt>
<wgt id='139'> +1.7974490e+01 </wgt>
<wgt id='140'> +1.8324786e+01 </wgt>
<wgt id='141'> +1.7322538e+01 </wgt>
<wgt id='142'> +1.7782227e+01 </wgt>
<wgt id='143'> +1.7582415e+01 </wgt>
<wgt id='144'> +1.7704101e+01 </wgt>
<wgt id='145'> +1.7451049e+01 </wgt>
</rwgt>
</event>
<event>
 3      1 +1.7556000e+01 1.25000000e+02 7.54677100e-03 1.23506900e-01
       21 -1    0    0  502  501 +0.0000000000e+00 +0.0000000000e+00 +6.6157848762e+01 6.6157848762e+01 0.0000000000e+00 0.0000e+00 1.0000e+00
       21 -1    0    0  501  502 -0.0000000000e+00 -0.0000000000e+00 -5.9044392662e+01 5.9044392662e+01 0.0000000000e+00 0.0000e+00 1.0000e+00
       25  1    1    2    0    0 +0.0000000000e+00 +0.0000000000e+00 +7.1134561002e+00 1.2520224142e+02 1.2500000000e+02 0.0000e+00 0.0000e+00
<mgrwt>
<rscale>  0 0.12500000E+03</rscale>
<asrwt>0</asrwt>
<pdfrwt beam="1">  1       21 0.10178131E-01 0.12500000E+03</pdfrwt>
<pdfrwt beam="2">  1       21 0.90837527E-02 0.12500000E+03</pdfrwt>
<totfact> 0.74016269E+06</totfact>
</mgrwt>
<rwgt>
<wgt id='1'> +1.6646941e+01 </wgt>
<wgt id='2'> +0.0000000e+00 </wgt>
<wgt id='3'> +1.6646941e+01 </wgt>
<wgt id='4'> +1.5355285e+01 </wgt>
<wgt id='5'> +1.6646941e+01 </wgt>
<wgt id='6'> +1.7556000e+01 </wgt>
<wgt id='7'> +0.0000000e+00 </wgt>
<wgt id='8'> +1.7556000e+01 </wgt>
<wgt id='9'> +1.6646941e+01 </wgt>
<wgt id='10'> +1.7556000e+01 </wgt>
<wgt id='11'> +1.8019566e+01 </wgt>
<wgt id='12'> +0.0000000e+00 </wgt>
<wgt id='13'> +1.8019566e+01 </wgt>
<wgt id='14'> +1.7556000e+01 </wgt>
<wgt id='15'> +1.8019566e+01 </wgt>
<wgt id='16'> +1.6646941e+01 </wgt>
<wgt id='17'> +0.0000000e+00 </wgt>
<wgt id='18'> +1.6646941e+01 </wgt>
<wgt id='19'> +1.5355285e+01 </wgt>
<wgt id='20'> +1.6646941e+01 </wgt>
<wgt id='21'> +0.0000000e+00 </wgt>
<wgt id='22'> +1.7556000e+01 </wgt>
<wgt id='23'> +1.6646941e+01 </wgt>
<wgt id='24'> +1.7556000e+01 </wgt>
<wgt id='25'> +1.8019566e+01 </wgt>
<wgt id='26'> +0.0000000e+00 </wgt>
<wgt id='27'> +1.8019566e+01 </wgt>
<wgt id='28'> +1.7556000e+01 </wgt>
<wgt id='29'> +1.8019566e+01 </wgt>
<wgt id='30'> +1.6646941e+01 </wgt>
<wgt id='31'> +0.0000000e+00 </wgt>
<wgt id='32'> +1.6646941e+01 </wgt>
<wgt id='33'> +1.5355285e+01 </wgt>
<wgt id='34'> +1.6646941e+01 </wgt>
<wgt id='35'> +1.7556000e+01 </wgt>
<wgt id='36'> +0.0000000e+00 </wgt>
<wgt id='37'> +1.7556000e+01 </wgt>
<wgt id='38'> +1.6646941e+01 </wgt>
<wgt id='39'> +1.7556000e+01 </wgt>
<wgt id='40'> +1.8019566e+01 </wgt>
<wgt id='41'> +0.0000000e+00 </wgt>
<wgt id='42'> +1.8019566e+01 </wgt>
<wgt id='43'> +1.7556000e+01 </wgt>
<wgt id='44'> +1.8019566e+01 </wgt>
<wgt id='45'> +1.7556000e+01 </wgt>
<wgt id='46'> +1.6959256e+01 </wgt>
<wgt id='47'> +1.7487292e+01 </wgt>
<wgt id='48'> +1.7128829e+01 </wgt>
<wgt id='49'> +1.7557456e+01 </wgt>
<wgt id='50'> +1.7833110e+01 </wgt>
<wgt id='51'> +1.7270974e+01 </wgt>
<wgt id='52'> +1.7394142e+01 </wgt>
<wgt id='53'> +1.8024878e+01 </wgt>
<wgt id='54'> +1.7641511e+01 </wgt>
<wgt id='55'> +1.6651276e+01 </wgt>
<wgt id='56'> +1.7366842e+01 </wgt>
<wgt id='57'> +1.7419555e+01 </wgt>
<wgt id='58'> +1.8369336e+01 </wgt>
<wgt id='59'> +1.7012149e+01 </wgt>
<wgt id='60'> +1.6788230e+01 </wgt>
<wgt id='61'> +1.8148674e+01 </wgt>
<wgt id='62'> +1.7205507e+01 </wgt>
<wgt id='63'> +1.7597358e+01 </wgt>
<wgt id='64'> +1.8033487e+01 </wgt>
<wgt id='65'> +1.9311920e+01 </wgt>
<wgt id='66'> +1.7101809e+01 </wgt>
<wgt id='67'> +1.7685952e+01 </wgt>
<wgt id='68'> +1.7917421e+01 </wgt>
<wgt id='69'> +1.6248436e+01 </wgt>
<wgt id='70'> +1.7552144e+01 </wgt>
<wgt id='71'> +1.7853181e+01 </wgt>
<wgt id='72'> +1.8730449e+01 </wgt>
<wgt id='73'> +1.7749675e+01 </wgt>
<wgt id='74'> +1.7326322e+01 </wgt>
<wgt id='75'> +1.7587347e+01 </wgt>
<wgt id='76'> +1.7479220e+01 </wgt>
<wgt id='77'> +1.6765092e+01 </wgt>
<wgt id='78'> +1.8122053e+01 </wgt>
<wgt id='79'> +1.6780840e+01 </wgt>
<wgt id='80'> +1.7668737e+01 </wgt>
<wgt id='81'> +1.7648331e+01 </wgt>
<wgt id='82'> +1.8139535e+01 </wgt>
<wgt id='83'> +1.7251365e+01 </wgt>
<wgt id='84'> +1.8193961e+01 </wgt>
<wgt id='85'> +1.8031452e+01 </wgt>
<wgt id='86'> +1.7006900e+01 </wgt>
<wgt id='87'> +1.7346036e+01 </wgt>
<wgt id='88'> +1.7338723e+01 </wgt>
<wgt id='89'> +1.7558369e+01 </wgt>
<wgt id='90'> +1.7595931e+01 </wgt>
<wgt id='91'> +1.8454533e+01 </wgt>
<wgt id='92'> +1.8051471e+01 </wgt>
<wgt id='93'> +1.6987777e+01 </wgt>
<wgt id='94'> +1.7976657e+01 </wgt>
<wgt id='95'> +1.7521986e+01 </wgt>
<wgt id='96'> +1.7535558e+01 </wgt>
<wgt id='97'> +1.8064651e+01 </wgt>
<wgt id='98'> +1.6859218e+01 </wgt>
<wgt id='99'> +1.7435503e+01 </wgt>
<wgt id='100'> +1.8597774e+01 </wgt>
<wgt id='101'> +1.7122892e+01 </wgt>
<wgt id='102'> +1.6197124e+01 </wgt>
<wgt id='103'> +1.8092238e+01 </wgt>
<wgt id='104'> +1.7070533e+01 </wgt>
<wgt id='105'> +1.8668023e+01 </wgt>
<wgt id='106'> +1.7782730e+01 </wgt>
<wgt id='107'> +1.8556039e+01 </wgt>
<wgt id='108'> +1.7312168e+01 </wgt>
<wgt id='109'> +1.7537424e+01 </wgt>
<wgt id='110'> +1.7893047e+01 </wgt>
<wgt id='111'> +1.7611612e+01 </wgt>
<wgt id='112'> +1.7543677e+01 </wgt>
<wgt id='113'> +1.7119158e+01 </wgt>
<wgt id='114'> +1.8596877e+01 </wgt>
<wgt id='115'> +1.8276876e+01 </wgt>
<wgt id='116'> +1.6576156e+01 </wgt>
<wgt id='117'> +1.7928062e+01 </wgt>
<wgt id='118'> +1.7034048e+01 </wgt>
<wgt id='119'> +1.7525766e+01 </wgt>
<wgt id='120'> +1.7871573e+01 </wgt>
<wgt id='121'> +1.7708049e+01 </wgt>
<wgt id='122'> +1.7546278e+01 </wgt>
<wgt id='123'> +1.7296641e+01 </wgt>
<wgt id='124'> +1.7437632e+01 </wgt>
<wgt id='125'> +1.7644513e+01 </wgt>
<wgt id='126'> +1.7540000e+01 </wgt>
<wgt id='127'> +1.7560994e+01 </wgt>
<wgt id='128'> +1.6979119e+01 </wgt>
<wgt id='129'> +1.8962625e+01 </wgt>
<wgt id='130'> +1.7135320e+01 </wgt>
<wgt id='131'> +1.8449367e+01 </wgt>
<wgt id='132'> +1.7147432e+01 </wgt>
<wgt id='133'> +1.6843652e+01 </wgt>
<wgt id='134'> +1.6843211e+01 </wgt>
<wgt id='135'> +1.7878359e+01 </wgt>
<wgt id='136'> +1.6881174e+01 </wgt>
<wgt id='137'> +1.6417023e+01 </wgt>
<wgt id='138'> +1.5323313e+01 </wgt>
<wgt id='139'> +1.7521487e+01 </wgt>
<wgt id='140'> +1.8684021e+01 </wgt>
<wgt id='141'> +1.7283275e+01 </wgt>
<wgt id='142'> +1.8374779e+01 </wgt>
<wgt id='143'> +1.7333661e+01 </wgt>
<wgt id='144'> +1.8173715e+01 </wgt>
<wgt id='145'> +1.7514237e+01 </wgt>
</rwgt>
</event>
<event>
 3      1 +1.7556000e+01 1.25000000e+02 7.54677100e-03 1.23506900e-01
       21 -1    0    0  502  501 +0.0000000000e+00 +0.0000000000e+00 +1.0736451630e+02 1.0736451630e+02 0.0000000000e+00 0.0000e+00 -1.0000e+00
       21 -1    0    0  501  502 -0.0000000000e+00 -0.0000000000e+00 -3.6383063368e+01 3.6383063368e+01 0.0000000000e+00 0.0000e+00 -1.0000e+00
       25  1    1    2    0    0 +0.0000000000e+00 +0.0000000000e+00 +7.0981452930e+01 1.4374757967e+02 1.2500000000e+02 0.0000e+00 0.0000e+00
<mgrwt>
<rscale>  0 0.12500000E+03</rscale>
<asrwt>0</asrwt>
<pdfrwt beam="1">  1       21 0.16517618E-01 0.12500000E+03</pdfrwt>
<pdfrwt beam="2">  1       21 0.55973944E-02 0.12500000E+03</pdfrwt>
<totfact> 0.71553765E+06</totfact>
</mgrwt>
<rwgt>
<wgt id='1'> +1.6665541e+01 </wgt>
<wgt id='2'> +0.0000000e+00 </wgt>
<wgt id='3'> +1.6665541e+01 </wgt>
<wgt id='4'> +1.5392879e+01 </wgt>
<wgt id='5'> +1.6665541e+01 </wgt>
<wgt id='6'> +1.7556000e+01 </wgt>
<wgt id='7'> +0.0000000e+00 </wgt>
<wgt id='8'> +1.7556000e+01 </wgt>
<wgt id='9'> +1.6665541e+01 </wgt>
<wgt id='10'> +1.7556000e+01 </wgt>
<wgt id='11'> +1.8002288e+01 </wgt>
<wgt id='12'> +0.0000000e+00 </wgt>
<wgt id='13'> +1.8002288e+01 </wgt>
<wgt id='14'> +1.7556000e+01 </wgt>
<wgt id='15'> +1.8002288e+01 </wgt>
<wgt id='16'> +1.6665541e+01 </wgt>
<wgt id='17'> +0.0000000e+00 </wgt>
<wgt id='18'> +1.6665541e+01 </wgt>
<wgt id='19'> +1.5392879e+01 </wgt>
<wgt id='20'> +1.6665541e+01 </wgt>
<wgt id='21'> +0.0000000e+00 </wgt>
<wgt id='22'> +1.7556000e+01 </wgt>
<wgt id='23'> +1.6665541e+01 </wgt>
<wgt id='24'> +1.7556000e+01 </wgt>
<wgt id='25'> +1.8002288e+01 </wgt>
<wgt id='26'> +0.0000000e+00 </wgt>
<wgt id='27'> +1.8002288e+01 </wgt>
<wgt id='28'> +1.7556000e+01 </wgt>
<wgt id='29'> +1.8002288e+01 </wgt>
<wgt id='30'> +1.6665541e+01 </wgt>
<wgt id='31'> +0.0000000e+00 </wgt>
<wgt id='32'> +1.6665541e+01 </wgt>
<wgt id='33'> +1.5392879e+01 </wgt>
<wgt id='34'> +1.6665541e+01 </wgt>
<wgt id='35'> +1.7556000e+01 </wgt>
<wgt id='36'> +0.0000000e+00 </wgt>
<wgt id='37'> +1.7556000e+01 </wgt>
<wgt id='38'> +1.6665541e+01 </wgt>
<wgt id='39'> +1.7556000e+01 </wgt>
<wgt id='40'> +1.8002288e+01 </wgt>
<wgt id='41'> +0.0000000e+00 </wgt>
<wgt id='42'> +1.8002288e+01 </wgt>
<wgt id='43'> +1.7556000e+01 </wgt>
<wgt id='44'> +1.8002288e+01 </wgt>
<wgt id='45'> +1.7556000e+01 </wgt>
<wgt id='46'> +1.7001806e+01 </wgt>
<wgt id='47'> +1.7508163e+01 </wgt>
<wgt id='48'> +1.7165616e+01 </wgt>
<wgt id='49'> +1.7581726e+01 </wgt>
<wgt id='50'> +1.7924728e+01 </wgt>
<wgt id='51'> +1.7281066e+01 </wgt>
<wgt id='52'> +1.7397235e+01 </wgt>
<wgt id='53'> +1.7991335e+01 </wgt>
<wgt id='54'> +1.7641022e+01 </wgt>
<wgt id='55'> +1.6601985e+01 </wgt>
<wgt id='56'> +1.7334283e+01 </wgt>
<wgt id='57'> +1.7386939e+01 </wgt>
<wgt id='58'> +1.8345069e+01 </wgt>
<wgt id='59'> +1.7025982e+01 </wgt>
<wgt id='60'> +1.6840735e+01 </wgt>
<wgt id='61'> +1.8108990e+01 </wgt>
<wgt id='62'> +1.7230774e+01 </wgt>
<wgt id='63'> +1.7606506e+01 </wgt>
<wgt id='64'> +1.8012891e+01 </wgt>
<wgt id='65'> +1.9309874e+01 </wgt>
<wgt id='66'> +1.7103040e+01 </wgt>
<wgt id='67'> +1.7676249e+01 </wgt>
<wgt id='68'> +1.7944311e+01 </wgt>
<wgt id='69'> +1.6295060e+01 </wgt>
<wgt id='70'> +1.7531487e+01 </wgt>
<wgt id='71'> +1.7826583e+01 </wgt>
<wgt id='72'> +1.8613447e+01 </wgt>
<wgt id='73'> +1.7751514e+01 </wgt>
<wgt id='74'> +1.7372792e+01 </wgt>
<wgt id='75'> +1.7610822e+01 </wgt>
<wgt id='76'> +1.7431595e+01 </wgt>
<wgt id='77'> +1.6795521e+01 </wgt>
<wgt id='78'> +1.8095435e+01 </wgt>
<wgt id='79'> +1.6809854e+01 </wgt>
<wgt id='80'> +1.7644800e+01 </wgt>
<wgt id='81'> +1.7618587e+01 </wgt>
<wgt id='82'> +1.8138337e+01 </wgt>
<wgt id='83'> +1.7273892e+01 </wgt>
<wgt id='84'> +1.8210199e+01 </wgt>
<wgt id='85'> +1.8074414e+01 </wgt>
<wgt id='86'> +1.7036680e+01 </wgt>
<wgt id='87'> +1.7367527e+01 </wgt>
<wgt id='88'> +1.7345229e+01 </wgt>
<wgt id='89'> +1.7608696e+01 </wgt>
<wgt id='90'> +1.7609879e+01 </wgt>
<wgt id='91'> +1.8457988e+01 </wgt>
<wgt id='92'> +1.7890964e+01 </wgt>
<wgt id='93'> +1.7029495e+01 </wgt>
<wgt id='94'> +1.7941238e+01 </wgt>
<wgt id='95'> +1.7467465e+01 </wgt>
<wgt id='96'> +1.7612029e+01 </wgt>
<wgt id='97'> +1.8040997e+01 </wgt>
<wgt id='98'> +1.6844553e+01 </wgt>
<wgt id='99'> +1.7453434e+01 </wgt>
<wgt id='100'> +1.8543048e+01 </wgt>
<wgt id='101'> +1.7191613e+01 </wgt>
<wgt id='102'> +1.6254132e+01 </wgt>
<wgt id='103'> +1.8145430e+01 </wgt>
<wgt id='104'> +1.7083249e+01 </wgt>
<wgt id='105'> +1.8616325e+01 </wgt>
<wgt id='106'> +1.7685120e+01 </wgt>
<wgt id='107'> +1.8483587e+01 </wgt>
<wgt id='108'> +1.7221798e+01 </wgt>
<wgt id='109'> +1.7488516e+01 </wgt>
<wgt id='110'> +1.7890583e+01 </wgt>
<wgt id='111'> +1.7568551e+01 </wgt>
<wgt id='112'> +1.7505503e+01 </wgt>
<wgt id='113'> +1.7080851e+01 </wgt>
<wgt id='114'> +1.8527113e+01 </wgt>
<wgt id='115'> +1.8227747e+01 </wgt>
<wgt id='116'> +1.6640137e+01 </wgt>
<wgt id='117'> +1.7919705e+01 </wgt>
<wgt id='118'> +1.7100406e+01 </wgt>
<wgt id='119'> +1.7489758e+01 </wgt>
<wgt id='120'> +1.7861015e+01 </wgt>
<wgt id='121'> +1.7679617e+01 </wgt>
<wgt id='122'> +1.7534997e+01 </wgt>
<wgt id='123'> +1.7323974e+01 </wgt>
<wgt id='124'> +1.7493076e+01 </wgt>
<wgt id='125'> +1.7695584e+01 </wgt>
<wgt id='126'> +1.7609246e+01 </wgt>
<wgt id='127'> +1.7599076e+01 </wgt>
<wgt id='128'> +1.6939932e+01 </wgt>
<wgt id='129'> +1.8973276e+01 </wgt>
<wgt id='130'> +1.7147783e+01 </wgt>
<wgt id='131'> +1.8459890e+01 </wgt>
<wgt id='132'> +1.7147124e+01 </wgt>
<wgt id='133'> +1.6888257e+01 </wgt>
<wgt id='134'> +1.6826581e+01 </wgt>
<wgt id='135'> +1.7889352e+01 </wgt>
<wgt id='136'> +1.6873977e+01 </wgt>
<wgt id='137'> +1.6427592e+01 </wgt>
<wgt id='138'> +1.5381965e+01 </wgt>
<wgt id='139'> +1.7559615e+01 </wgt>
<wgt id='140'> +1.8671504e+01 </wgt>
<wgt id='141'> +1.7282328e+01 </wgt>
<wgt id='142'> +1.8352988e+01 </wgt>
<wgt id='143'> +1.7331324e+01 </wgt>
<wgt id='144'> +1.8129499e+01 </wgt>
<wgt id='145'> +1.7504736e+01 </wgt>
</rwgt>
</event>
<event>
 3      1 +1.7556000e+01 1.25000000e+02 7.54677100e-03 1.23506900e-01
       21 -1    0    0  502  501 +0.0000000000e+00 +0.0000000000e+00 +3.6760267552e+02 3.6760267552e+02 0.0000000000e+00 0.0000e+00 1.0000e+00
       21 -1    0    0  501  502 -0.0000000000e+00 -0.0000000000e+00 -1.0626282832e+01 1.0626282832e+01 0.0000000000e+00 0.0000e+00 1.0000e+00
       25  1    1    2    0    0 +0.0000000000e+00 +0.0000000000e+00 +3.5697639269e+02 3.7822895835e+02 1.2500000000e+02 0.0000e+00 0.0000e+00
<mgrwt>
<rscale>  0 0.12500000E+03</rscale>
<asrwt>0</asrwt>
<pdfrwt beam="1">  1       21 0.56554248E-01 0.12500000E+03</pdfrwt>
<pdfrwt beam="2">  1       21 0.16348130E-02 0.12500000E+03</pdfrwt>
<totfact> 0.49518861E+06</totfact>
</mgrwt>
<rwgt>
<wgt id='1'> +1.6872087e+01 </wgt>
<wgt id='2'> +0.0000000e+00 </wgt>
<wgt id='3'> +1.6872087e+01 </wgt>
<wgt id='4'> +1.5806823e+01 </wgt>
<wgt id='5'> +1.6872087e+01 </wgt>
<wgt id='6'> +1.7556000e+01 </wgt>
<wgt id='7'> +0.0000000e+00 </wgt>
<wgt id='8'> +1.7556000e+01 </wgt>
<wgt id='9'> +1.6872087e+01 </wgt>
<wgt id='10'> +1.7556000e+01 </wgt>
<wgt id='11'> +1.7807792e+01 </wgt>
<wgt id='12'> +0.0000000e+00 </wgt>
<wgt id='13'> +1.7807792e+01 </wgt>
<wgt id='14'> +1.7556000e+01 </wgt>
<wgt id='15'> +1.7807792e+01 </wgt>
<wgt id='16'> +1.6872087e+01 </wgt>
<wgt id='17'> +0.0000000e+00 </wgt>
<wgt id='18'> +1.6872087e+01 </wgt>
<wgt id='19'> +1.5806823e+01 </wgt>
<wgt id='20'> +1.6872087e+01 </wgt>
<wgt id='21'> +0.0000000e+00 </wgt>
<wgt id='22'> +1.7556000e+01 </wgt>
<wgt id='23'> +1.6872087e+01 </wgt>
<wgt id='24'> +1.7556000e+01 </wgt>
<wgt id='25'> +1.7807792e+01 </wgt>
<wgt id='26'> +0.0000000e+00 </wgt>
<wgt id='27'> +1.7807792e+01 </wgt>
<wgt id='28'> +1.7556000e+01 </wgt>
<wgt id='29'> +1.7807792e+01 </wgt>
<wgt id='30'> +1.6872087e+01 </wgt>
<wgt id='31'> +0.0000000e+00 </wgt>
<wgt id='32'> +1.6872087e+01 </wgt>
<wgt id='33'> +1.5806823e+01 </wgt>
<wgt id='34'> +1.6872087e+01 </wgt>
<wgt id='35'> +1.7556000e+01 </wgt>
<wgt id='36'> +0.0000000e+00 </wgt>
<wgt id='37'> +1.7556000e+01 </wgt>
<wgt id='38'> +1.6872087e+01 </wgt>
<wgt id='39'> +1.7556000e+01 </wgt>
<wgt id='40'> +1.7807792e+01 </wgt>
<wgt id='41'> +0.0000000e+00 </wgt>
<wgt id='42'> +1.7807792e+01 </wgt>
<wgt id='43'> +1.7556000e+01 </wgt>
<wgt id='44'> +1.7807792e+01 </wgt>
<wgt id='45'> +1.7556000e+01 </wgt>
<wgt id='46'> +1.7495867e+01 </wgt>
<wgt id='47'> +1.7655101e+01 </wgt>
<wgt id='48'> +1.7513923e+01 </wgt>
<wgt id='49'> +1.7726828e+01 </wgt>
<wgt id='50'> +1.8834328e+01 </wgt>
<wgt id='51'> +1.7358378e+01 </wgt>
<wgt id='52'> +1.7580752e+01 </wgt>
<wgt id='53'> +1.7503215e+01 </wgt>
<wgt id='54'> +1.7609747e+01 </wgt>
<wgt id='55'> +1.6495644e+01 </wgt>
<wgt id='56'> +1.6889440e+01 </wgt>
<wgt id='57'> +1.7304368e+01 </wgt>
<wgt id='58'> +1.7995112e+01 </wgt>
<wgt id='59'> +1.7520570e+01 </wgt>
<wgt id='60'> +1.7582441e+01 </wgt>
<wgt id='61'> +1.7220478e+01 </wgt>
<wgt id='62'> +1.7437166e+01 </wgt>
<wgt id='63'> +1.7659093e+01 </wgt>
<wgt id='64'> +1.7643027e+01 </wgt>
<wgt id='65'> +1.9052729e+01 </wgt>
<wgt id='66'> +1.7134726e+01 </wgt>
<wgt id='67'> +1.7582181e+01 </wgt>
<wgt id='68'> +1.8292559e+01 </wgt>
<wgt id='69'> +1.6797182e+01 </wgt>
<wgt id='70'> +1.7348736e+01 </wgt>
<wgt id='71'> +1.7651083e+01 </wgt>
<wgt id='72'> +1.7647441e+01 </wgt>
<wgt id='73'> +1.7687948e+01 </wgt>
<wgt id='74'> +1.7907267e+01 </wgt>
<wgt id='75'> +1.7811477e+01 </wgt>
<wgt id='76'> +1.7185882e+01 </wgt>
<wgt id='77'> +1.7214723e+01 </wgt>
<wgt id='78'> +1.7593829e+01 </wgt>
<wgt id='79'> +1.7233376e+01 </wgt>
<wgt id='80'> +1.7387823e+01 </wgt>
<wgt id='81'> +1.7342342e+01 </wgt>
<wgt id='82'> +1.7873254e+01 </wgt>
<wgt id='83'> +1.7424784e+01 </wgt>
<wgt id='84'> +1.8222118e+01 </wgt>
<wgt id='85'> +1.8217113e+01 </wgt>
<wgt id='86'> +1.7339763e+01 </wgt>
<wgt id='87'> +1.7606751e+01 </wgt>
<wgt id='88'> +1.7329639e+01 </wgt>
<wgt id='89'> +1.8068770e+01 </wgt>
<wgt id='90'> +1.7866207e+01 </wgt>
<wgt id='91'> +1.8286285e+01 </wgt>
<wgt id='92'> +1.6757024e+01 </wgt>
<wgt id='93'> +1.7458246e+01 </wgt>
<wgt id='94'> +1.7605841e+01 </wgt>
<wgt id='95'> +1.7159190e+01 </wgt>
<wgt id='96'> +1.8227330e+01 </wgt>
<wgt id='97'> +1.7739057e+01 </wgt>
<wgt id='98'> +1.6902076e+01 </wgt>
<wgt id='99'> +1.7497498e+01 </wgt>
<wgt id='100'> +1.7777108e+01 </wgt>
<wgt id='101'> +1.8099919e+01 </wgt>
<wgt id='102'> +1.7085739e+01 </wgt>
<wgt id='103'> +1.8591395e+01 </wgt>
<wgt id='104'> +1.7209854e+01 </wgt>
<wgt id='105'> +1.8137999e+01 </wgt>
<wgt id='106'> +1.6807565e+01 </wgt>
<wgt id='107'> +1.7631037e+01 </wgt>
<wgt id='108'> +1.6340477e+01 </wgt>
<wgt id='109'> +1.7030808e+01 </wgt>
<wgt id='110'> +1.7835748e+01 </wgt>
<wgt id='111'> +1.7205376e+01 </wgt>
<wgt id='112'> +1.7031846e+01 </wgt>
<wgt id='113'> +1.6762013e+01 </wgt>
<wgt id='114'> +1.7649272e+01 </wgt>
<wgt id='115'> +1.7289264e+01 </wgt>
<wgt id='116'> +1.7359147e+01 </wgt>
<wgt id='117'> +1.7623545e+01 </wgt>
<wgt id='118'> +1.7833845e+01 </wgt>
<wgt id='119'> +1.7228425e+01 </wgt>
<wgt id='120'> +1.7327886e+01 </wgt>
<wgt id='121'> +1.7481740e+01 </wgt>
<wgt id='122'> +1.7446016e+01 </wgt>
<wgt id='123'> +1.7500699e+01 </wgt>
<wgt id='124'> +1.8197617e+01 </wgt>
<wgt id='125'> +1.8346293e+01 </wgt>
<wgt id='126'> +1.7952397e+01 </wgt>
<wgt id='127'> +1.7933020e+01 </wgt>
<wgt id='128'> +1.6423275e+01 </wgt>
<wgt id='129'> +1.9051199e+01 </wgt>
<wgt id='130'> +1.7141790e+01 </wgt>
<wgt id='131'> +1.8408033e+01 </wgt>
<wgt id='132'> +1.7612000e+01 </wgt>
<wgt id='133'> +1.7468849e+01 </wgt>
<wgt id='134'> +1.6903046e+01 </wgt>
<wgt id='135'> +1.7947795e+01 </wgt>
<wgt id='136'> +1.7256561e+01 </wgt>
<wgt id='137'> +1.6596254e+01 </wgt>
<wgt id='138'> +1.6037297e+01 </wgt>
<wgt id='139'> +1.7957180e+01 </wgt>
<wgt id='140'> +1.8347310e+01 </wgt>
<wgt id='141'> +1.7316278e+01 </wgt>
<wgt id='142'> +1.7825112e+01 </wgt>
<wgt id='143'> +1.7564350e+01 </wgt>
<wgt id='144'> +1.7724507e+01 </wgt>
<wgt id='145'> +1.7454991e+01 </wgt>
</rwgt>
</event>
<event>
 3      1 +1.7556000e+01 1.25000000e+02 7.54677100e-03 1.23506900e-01
       21 -1    0    0  502  501 +0.0000000000e+00 +0.0000000000e+00 +9.6045115285e+00 9.6045115285e+00 0.0000000000e+00 0.0000e+00 -1.0000e+00
       21 -1    0    0  501  502 -0.0000000000e+00 -0.0000000000e+00 -4.0670990798e+02 4.0670990798e+02 0.0000000000e+00 0.0000e+00 -1.0000e+00
       25  1    1    2    0    0 +0.0000000000e+00 +0.0000000000e+00 -3.9710539646e+02 4.1631441951e+02 1.2500000000e+02 0.0000e+00 0.0000e+00
<mgrwt>
<rscale>  0 0.12500000E+03</rscale>
<asrwt>0</asrwt>
<pdfrwt beam="1">  1       21 0.14776173E-02 0.12500000E+03</pdfrwt>
<pdfrwt beam="2">  1       21 0.62570747E-01 0.12500000E+03</pdfrwt>
<totfact> 0.46977733E+06</totfact>
</mgrwt>
<rwgt>
<wgt id='1'> +1.6903116e+01 </wgt>
<wgt id='2'> +0.0000000e+00 </wgt>
<wgt id='3'> +1.6903116e+01 </wgt>
<wgt id='4'> +1.5868474e+01 </wgt>
<wgt id='5'> +1.6903116e+01 </wgt>
<wgt id='6'> +1.7556000e+01 </wgt>
<wgt id='7'> +0.0000000e+00 </wgt>
<wgt id='8'> +1.7556000e+01 </wgt>
<wgt id='9'> +1.6903116e+01 </wgt>
<wgt id='10'> +1.7556000e+01 </wgt>
<wgt id='11'> +1.7778217e+01 </wgt>
<wgt id='12'> +0.0000000e+00 </wgt>
<wgt id='13'> +1.7778217e+01 </wgt>
<wgt id='14'> +1.7556000e+01 </wgt>
<wgt id='15'> +1.7778217e+01 </wgt>
<wgt id='16'> +1.6903116e+01 </wgt>
<wgt id='17'> +0.0000000e+00 </wgt>
<wgt id='18'> +1.6903116e+01 </wgt>
<wgt id='19'> +1.5868474e+01 </wgt>
<wgt id='20'> +1.6903116e+01 </wgt>
<wgt id='21'> +0.0000000e+00 </wgt>
<wgt id='22'> +1.7556000e+01 </wgt>
<wgt id='23'> +1.6903116e+01 </wgt>
<wgt id='24'> +1.7556000e+01 </wgt>
<wgt id='25'> +1.7778217e+01 </wgt>
<wgt id='26'> +0.0000000e+00 </wgt>
<wgt id='27'> +1.7778217e+01 </wgt>
<wgt id='28'> +1.7556000e+01 </wgt>
<wgt id='29'> +1.7778217e+01 </wgt>
<wgt id='30'> +1.6903116e+01 </wgt>
<wgt id='31'> +0.0000000e+00 </wgt>
<wgt id='32'> +1.6903116e+01 </wgt>
<wgt id='33'> +1.5868474e+01 </wgt>
<wgt id='34'> +1.6903116e+01 </wgt>
<wgt id='35'> +1.7556000e+01 </wgt>
<wgt id='36'> +0.0000000e+00 </wgt>
<wgt id='37'> +1.7556000e+01 </wgt>
<wgt id='38'> +1.6903116e+01 </wgt>
<wgt id='39'> +1.7556000e+01 </wgt>
<wgt id='40'> +1.7778217e+01 </wgt>
<wgt id='41'> +0.0000000e+00 </wgt>
<wgt id='42'> +1.7778217e+01 </wgt>
<wgt id='43'> +1.7556000e+01 </wgt>
<wgt id='44'> +1.7778217e+01 </wgt>
<wgt id='45'> +1.7556000e+01 </wgt>
<wgt id='46'> +1.7564331e+01 </wgt>
<wgt id='47'> +1.7661141e+01 </wgt>
<wgt id='48'> +1.7552669e+01 </wgt>
<wgt id='49'> +1.7724833e+01 </wgt>
<wgt id='50'> +1.8942155e+01 </wgt>
<wgt id='51'> +1.7358900e+01 </wgt>
<wgt id='52'> +1.7608930e+01 </wgt>
<wgt id='53'> +1.7430831e+01 </wgt>
<wgt id='54'> +1.7616877e+01 </wgt>
<wgt id='55'> +1.6552903e+01 </wgt>
<wgt id='56'> +1.6822999e+01 </wgt>
<wgt id='57'> +1.7336893e+01 </wgt>
<wgt id='58'> +1.7928656e+01 </wgt>
<wgt id='59'> +1.7629334e+01 </wgt>
<wgt id='60'> +1.7695028e+01 </wgt>
<wgt id='61'> +1.6992440e+01 </wgt>
<wgt id='62'> +1.7449698e+01 </wgt>
<wgt id='63'> +1.7664630e+01 </wgt>
<wgt id='64'> +1.7596566e+01 </wgt>
<wgt id='65'> +1.8978528e+01 </wgt>
<wgt id='66'> +1.7140913e+01 </wgt>
<wgt id='67'> +1.7566995e+01 </wgt>
<wgt id='68'> +1.8352902e+01 </wgt>
<wgt id='69'> +1.6869899e+01 </wgt>
<wgt id='70'> +1.7332972e+01 </wgt>
<wgt id='71'> +1.7626496e+01 </wgt>
<wgt id='72'> +1.7556603e+01 </wgt>
<wgt id='73'> +1.7660872e+01 </wgt>
<wgt id='74'> +1.7987345e+01 </wgt>
<wgt id='75'> +1.7836369e+01 </wgt>
<wgt id='76'> +1.7188220e+01 </wgt>
<wgt id='77'> +1.7274392e+01 </wgt>
<wgt id='78'> +1.7497152e+01 </wgt>
<wgt id='79'> +1.7306751e+01 </wgt>
<wgt id='80'> +1.7341001e+01 </wgt>
<wgt id='81'> +1.7312880e+01 </wgt>
<wgt id='82'> +1.7793964e+01 </wgt>
<wgt id='83'> +1.7429016e+01 </wgt>
<wgt id='84'> +1.8193579e+01 </wgt>
<wgt id='85'> +1.8188816e+01 </wgt>
<wgt id='86'> +1.7379517e+01 </wgt>
<wgt id='87'> +1.7637062e+01 </wgt>
<wgt id='88'> +1.7309143e+01 </wgt>
<wgt id='89'> +1.8102204e+01 </wgt>
<wgt id='90'> +1.7903115e+01 </wgt>
<wgt id='91'> +1.8222503e+01 </wgt>
<wgt id='92'> +1.6663869e+01 </wgt>
<wgt id='93'> +1.7512153e+01 </wgt>
<wgt id='94'> +1.7553642e+01 </wgt>
<wgt id='95'> +1.7170366e+01 </wgt>
<wgt id='96'> +1.8269515e+01 </wgt>
<wgt id='97'> +1.7684289e+01 </wgt>
<wgt id='98'> +1.6940090e+01 </wgt>
<wgt id='99'> +1.7473609e+01 </wgt>
<wgt id='100'> +1.7634445e+01 </wgt>
<wgt id='101'> +1.8242582e+01 </wgt>
<wgt id='102'> +1.7229961e+01 </wgt>
<wgt id='103'> +1.8619854e+01 </wgt>
<wgt id='104'> +1.7231242e+01 </wgt>
<wgt id='105'> +1.8086865e+01 </wgt>
<wgt id='106'> +1.6724200e+01 </wgt>
<wgt id='107'> +1.7513125e+01 </wgt>
<wgt id='108'> +1.6245757e+01 </wgt>
<wgt id='109'> +1.6994882e+01 </wgt>
<wgt id='110'> +1.7817457e+01 </wgt>
<wgt id='111'> +1.7175620e+01 </wgt>
<wgt id='112'> +1.6977114e+01 </wgt>
<wgt id='113'> +1.6747636e+01 </wgt>
<wgt id='114'> +1.7552233e+01 </wgt>
<wgt id='115'> +1.7147022e+01 </wgt>
<wgt id='116'> +1.7463543e+01 </wgt>
<wgt id='117'> +1.7568906e+01 </wgt>
<wgt id='118'> +1.7931123e+01 </wgt>
<wgt id='119'> +1.7224165e+01 </wgt>
<wgt id='120'> +1.7256018e+01 </wgt>
<wgt id='121'> +1.7478091e+01 </wgt>
<wgt id='122'> +1.7444260e+01 </wgt>
<wgt id='123'> +1.7509785e+01 </wgt>
<wgt id='124'> +1.8303844e+01 </wgt>
<wgt id='125'> +1.8455813e+01 </wgt>
<wgt id='126'> +1.7966485e+01 </wgt>
<wgt id='127'> +1.7959928e+01 </wgt>
<wgt id='128'> +1.6352587e+01 </wgt>
<wgt id='129'> +1.9044001e+01 </wgt>
<wgt id='130'> +1.7113180e+01 </wgt>
<wgt id='131'> +1.8365998e+01 </wgt>
<wgt id='132'> +1.7728952e+01 </wgt>
<wgt id='133'> +1.7563594e+01 </wgt>
<wgt id='134'> +1.6947600e+01 </wgt>
<wgt id='135'> +1.7940161e+01 </wgt>
<wgt id='136'> +1.7384115e+01 </wgt>
<wgt id='137'> +1.6630899e+01 </wgt>
<wgt id='138'> +1.6135704e+01 </wgt>
<wgt id='139'> +1.8006530e+01 </wgt>
<wgt id='140'> +1.8279687e+01 </wgt>
<wgt id='141'> +1.7335916e+01 </wgt>
<wgt id='142'> +1.7691817e+01 </wgt>
<wgt id='143'> +1.7618545e+01 </wgt>
<wgt id='144'> +1.7664790e+01 </wgt>
<wgt id='145'> +1.7442387e+01 </wgt>
</rwgt>
</event>
<event>
 3      1 +1.7556000e+01 1.25000000e+02 7.54677100e-03 1.23506900e-01
       21 -1    0    0  502  501 +0.0000000000e+00 +0.0000000000e+00 +4.1495630293e+02 4.1495630293e+02 0.0000000000e+00 0.0000e+00 -1.0000e+00
       21 -1    0    0  501  502 -0.0000000000e+00 -0.0000000000e+00 -9.4136418038e+00 9.4136418038e+00 0.0000000000e+00 0.0000e+00 -1.0000e+00
       25  1    1    2    0    0 +0.0000000000e+00 +0.0000000000e+00 +4.0554266112e+02 4.2436994473e+02 1.2500000000e+02 0.0000e+00 0.0000e+00
<mgrwt>
<rscale>  0 0.12500000E+03</rscale>
<asrwt>0</asrwt>
<pdfrwt beam="1">  1       21 0.63839417E-01 0.12500000E+03</pdfrwt>
<pdfrwt beam="2">  1       21 0.14482529E-02 0.12500000E+03</pdfrwt>
<totfact> 0.46465844E+06</totfact>
</mgrwt>
<rwgt>
<wgt id='1'> +1.6908947e+01 </wgt>
<wgt id='2'> +0.0000000e+00 </wgt>
<wgt id='3'> +1.6908947e+01 </wgt>
<wgt id='4'> +1.5880074e+01 </wgt>
<wgt id='5'> +1.6908947e+01 </wgt>
<wgt id='6'> +1.7556000e+01 </wgt>
<wgt id='7'> +0.0000000e+00 </wgt>
<wgt id='8'> +1.7556000e+01 </wgt>
<wgt id='9'> +1.6908947e+01 </wgt>
<wgt id='10'> +1.7556000e+01 </wgt>
<wgt id='11'> +1.7772674e+01 </wgt>
<wgt id='12'> +0.0000000e+00 </wgt>
<wgt id='13'> +1.7772674e+01 </wgt>
<wgt id='14'> +1.7556000e+01 </wgt>
<wgt id='15'> +1.7772674e+01 </wgt>
<wgt id='16'> +1.6908947e+01 </wgt>
<wgt id='17'> +0.0000000e+00 </wgt>
<wgt id='18'> +1.6908947e+01 </wgt>
<wgt id='19'> +1.5880074e+01 </wgt>
<wgt id='20'> +1.6908947e+01 </wgt>
<wgt id='21'> +0.0000000e+00 </wgt>
<wgt id='22'> +1.7556000e+01 </wgt>
<wgt id='23'> +1.6908947e+01 </wgt>
<wgt id='24'> +1.7556000e+01 </wgt>
<wgt id='25'> +1.7772674e+01 </wgt>
<wgt id='26'> +0.0000000e+00 </wgt>
<wgt id='27'> +1.7772674e+01 </wgt>
<wgt id='28'> +1.7556000e+01 </wgt>
<wgt id='29'> +1.7772674e+01 </wgt>
<wgt id='30'> +1.6908947e+01 </wgt>
<wgt id='31'> +0.0000000e+00 </wgt>
<wgt id='32'> +1.6908947e+01 </wgt>
<wgt id='33'> +1.5880074e+01 </wgt>
<wgt id='34'> +1.6908947e+01 </wgt>
<wgt id='35'> +1.7556000e+01 </wgt>
<wgt id='36'> +0.0000000e+00 </wgt>
<wgt id='37'> +1.7556000e+01 </wgt>
<wgt id='38'> +1.6908947e+01 </wgt>
<wgt id='39'> +1.7556000e+01 </wgt>
<wgt id='40'> +1.7772674e+01 </wgt>
<wgt id='41'> +0.0000000e+00 </wgt>
<wgt id='42'> +1.7772674e+01 </wgt>
<wgt id='43'> +1.7556000e+01 </wgt>
<wgt id='44'> +1.7772674e+01 </wgt>
<wgt id='45'> +1.7556000e+01 </wgt>
<wgt id='46'> +1.7578199e+01 </wgt>
<wgt id='47'> +1.7661538e+01 </wgt>
<wgt id='48'> +1.7560252e+01 </wgt>
<wgt id='49'> +1.7723563e+01 </wgt>
<wgt id='50'> +1.8962655e+01 </wgt>
<wgt id='51'> +1.7358587e+01 </wgt>
<wgt id='52'> +1.7614559e+01 </wgt>
<wgt id='53'> +1.7416078e+01 </wgt>
<wgt id='54'> +1.7619102e+01 </wgt>
<wgt id='55'> +1.6568086e+01 </wgt>
<wgt id='56'> +1.6809681e+01 </wgt>
<wgt id='57'> +1.7345535e+01 </wgt>
<wgt id='58'> +1.7914409e+01 </wgt>
<wgt id='59'> +1.7653101e+01 </wgt>
<wgt id='60'> +1.7718428e+01 </wgt>
<wgt id='61'> +1.6938804e+01 </wgt>
<wgt id='62'> +1.7451578e+01 </wgt>
<wgt id='63'> +1.7665778e+01 </wgt>
<wgt id='64'> +1.7588014e+01 </wgt>
<wgt id='65'> +1.8961202e+01 </wgt>
<wgt id='66'> +1.7142228e+01 </wgt>
<wgt id='67'> +1.7563675e+01 </wgt>
<wgt id='68'> +1.8365664e+01 </wgt>
<wgt id='69'> +1.6884898e+01 </wgt>
<wgt id='70'> +1.7330248e+01 </wgt>
<wgt id='71'> +1.7621084e+01 </wgt>
<wgt id='72'> +1.7540104e+01 </wgt>
<wgt id='73'> +1.7654711e+01 </wgt>
<wgt id='74'> +1.8003910e+01 </wgt>
<wgt id='75'> +1.7841477e+01 </wgt>
<wgt id='76'> +1.7190247e+01 </wgt>
<wgt id='77'> +1.7286585e+01 </wgt>
<wgt id='78'> +1.7476466e+01 </wgt>
<wgt id='79'> +1.7322506e+01 </wgt>
<wgt id='80'> +1.7330716e+01 </wgt>
<wgt id='81'> +1.7307314e+01 </wgt>
<wgt id='82'> +1.7775691e+01 </wgt>
<wgt id='83'> +1.7428993e+01 </wgt>
<wgt id='84'> +1.8185962e+01 </wgt>
<wgt id='85'> +1.8180992e+01 </wgt>
<wgt id='86'> +1.7387508e+01 </wgt>
<wgt id='87'> +1.7643114e+01 </wgt>
<wgt id='88'> +1.7303786e+01 </wgt>
<wgt id='89'> +1.8107550e+01 </wgt>
<wgt id='90'> +1.7910476e+01 </wgt>
<wgt id='91'> +1.8207498e+01 </wgt>
<wgt id='92'> +1.6647382e+01 </wgt>
<wgt id='93'> +1.7522978e+01 </wgt>
<wgt id='94'> +1.7542675e+01 </wgt>
<wgt id='95'> +1.7175262e+01 </wgt>
<wgt id='96'> +1.8275813e+01 </wgt>
<wgt id='97'> +1.7672483e+01 </wgt>
<wgt id='98'> +1.6949031e+01 </wgt>
<wgt id='99'> +1.7467604e+01 </wgt>
<wgt id='100'> +1.7603817e+01 </wgt>
<wgt id='101'> +1.8272104e+01 </wgt>
<wgt id='102'> +1.7260586e+01 </wgt>
<wgt id='103'> +1.8623835e+01 </wgt>
<wgt id='104'> +1.7235752e+01 </wgt>
<wgt id='105'> +1.8077052e+01 </wgt>
<wgt id='106'> +1.6709397e+01 </wgt>
<wgt id='107'> +1.7489418e+01 </wgt>
<wgt id='108'> +1.6228145e+01 </wgt>
<wgt id='109'> +1.6989328e+01 </wgt>
<wgt id='110'> +1.7813271e+01 </wgt>
<wgt id='111'> +1.7170583e+01 </wgt>
<wgt id='112'> +1.6966930e+01 </wgt>
<wgt id='113'> +1.6746585e+01 </wgt>
<wgt id='114'> +1.7534280e+01 </wgt>
<wgt id='115'> +1.7118335e+01 </wgt>
<wgt id='116'> +1.7485005e+01 </wgt>
<wgt id='117'> +1.7557477e+01 </wgt>
<wgt id='118'> +1.7950658e+01 </wgt>
<wgt id='119'> +1.7225007e+01 </wgt>
<wgt id='120'> +1.7242927e+01 </wgt>
<wgt id='121'> +1.7478725e+01 </wgt>
<wgt id='122'> +1.7444608e+01 </wgt>
<wgt id='123'> +1.7510984e+01 </wgt>
<wgt id='124'> +1.8325520e+01 </wgt>
<wgt id='125'> +1.8478857e+01 </wgt>
<wgt id='126'> +1.7968147e+01 </wgt>
<wgt id='127'> +1.7964457e+01 </wgt>
<wgt id='128'> +1.6338583e+01 </wgt>
<wgt id='129'> +1.9041238e+01 </wgt>
<wgt id='130'> +1.7105572e+01 </wgt>
<wgt id='131'> +1.8355539e+01 </wgt>
<wgt id='132'> +1.7754751e+01 </wgt>
<wgt id='133'> +1.7583565e+01 </wgt>
<wgt id='134'> +1.6958200e+01 </wgt>
<wgt id='135'> +1.7937824e+01 </wgt>
<wgt id='136'> +1.7413525e+01 </wgt>
<wgt id='137'> +1.6638573e+01 </wgt>
<wgt id='138'> +1.6156316e+01 </wgt>
<wgt id='139'> +1.8016339e+01 </wgt>
<wgt id='140'> +1.8264989e+01 </wgt>
<wgt id='141'> +1.7340537e+01 </wgt>
<wgt id='142'> +1.7661365e+01 </wgt>
<wgt id='143'> +1.7630278e+01 </wgt>
<wgt id='144'> +1.7652313e+01 </wgt>
<wgt id='145'> +1.7439304e+01 </wgt>
</rwgt>
</event>
<event>
 3      1 +1.7556000e+01 1.25000000e+02 7.54677100e-03 1.23506900e-01
       21 -1    0    0  502  501 +0.0000000000e+00 +0.0000000000e+00 +7.9979030206e+00 7.9979030206e+00 0.0000000000e+00 0.0000e+00 1.0000e+00
       21 -1    0    0  501  502 -0.0000000000e+00 -0.0000000000e+00 -4.8840927302e+02 4.8840927302e+02 0.0000000000e+00 0.0000e+00 1.0000e+00
       25  1    1    2    0    0 +0.0000000000e+00 +0.0000000000e+00 -4.8041137000e+02 4.9640717604e+02 1.2500000000e+02 0.0000e+00 0.0000e+00
<mgrwt>
<rscale>  0 0.12500000E+03</rscale>
<asrwt>0</asrwt>
<pdfrwt beam="1">  1       21 0.12304462E-02 0.12500000E+03</pdfrwt>
<pdfrwt beam="2">  1       21 0.75139914E-01 0.12500000E+03</pdfrwt>
<totfact> 0.42239581E+06</totfact>
</mgrwt>
<rwgt>
<wgt id='1'> +1.6958966e+01 </wgt>
<wgt id='2'> +0.0000000e+00 </wgt>
<wgt id='3'> +1.6958966e+01 </wgt>
<wgt id='4'> +1.5979660e+01 </wgt>
<wgt id='5'> +1.6958966e+01 </wgt>
<wgt id='6'> +1.7556000e+01 </wgt>
<wgt id='7'> +0.0000000e+00 </wgt>
<wgt id='8'> +1.7556000e+01 </wgt>
<wgt id='9'> +1.6958966e+01 </wgt>
<wgt id='10'> +1.7556000e+01 </wgt>
<wgt id='11'> +1.7725239e+01 </wgt>
<wgt id='12'> +0.0000000e+00 </wgt>
<wgt id='13'> +1.7725239e+01 </wgt>
<wgt id='14'> +1.7556000e+01 </wgt>
<wgt id='15'> +1.7725239e+01 </wgt>
<wgt id='16'> +1.6958966e+01 </wgt>
<wgt id='17'> +0.0000000e+00 </wgt>
<wgt id='18'> +1.6958966e+01 </wgt>
<wgt id='19'> +1.5979660e+01 </wgt>
<wgt id='20'> +1.6958966e+01 </wgt>
<wgt id='21'> +0.0000000e+00 </wgt>
<wgt id='22'> +1.7556000e+01 </wgt>
<wgt id='23'> +1.6958966e+01 </wgt>
<wgt id='24'> +1.7556000e+01 </wgt>
<wgt id='25'> +1.7725239e+01 </wgt>
<wgt id='26'> +0.0000000e+00 </wgt>
<wgt id='27'> +1.7725239e+01 </wgt>
<wgt id='28'> +1.7556000e+01 </wgt>
<wgt id='29'> +1.7725239e+01 </wgt>
<wgt id='30'> +1.6958966e+01 </wgt>
<wgt id='31'> +0.0000000e+00 </wgt>
<wgt id='32'> +1.6958966e+01 </wgt>
<wgt id='33'> +1.5979660e+01 </wgt>
<wgt id='34'> +1.6958966e+01 </wgt>
<wgt id='35'> +1.7556000e+01 </wgt>
<wgt id='36'> +0.0000000e+00 </wgt>
<wgt id='37'> +1.7556000e+01 </wgt>
<wgt id='38'> +1.6958966e+01 </wgt>
<wgt id='39'> +1.7556000e+01 </wgt>
<wgt id='40'> +1.7725239e+01 </wgt>
<wgt id='41'> +0.0000000e+00 </wgt>
<wgt id='42'> +1.7725239e+01 </wgt>
<wgt id='43'> +1.7556000e+01 </wgt>
<wgt id='44'> +1.7725239e+01 </wgt>
<wgt id='45'> +1.7556000e+01 </wgt>
<wgt id='46'> +1.7695732e+01 </wgt>
<wgt id='47'> +1.7656942e+01 </wgt>
<wgt id='48'> +1.7618752e+01 </wgt>
<wgt id='49'> +1.7700310e+01 </wgt>
<wgt id='50'> +1.9125545e+01 </wgt>
<wgt id='51'> +1.7349120e+01 </wgt>
<wgt id='52'> +1.7658149e+01 </wgt>
<wgt id='53'> +1.7290846e+01 </wgt>
<wgt id='54'> +1.7648426e+01 </wgt>
<wgt id='55'> +1.6737071e+01 </wgt>
<wgt id='56'> +1.6699604e+01 </wgt>
<wgt id='57'> +1.7441044e+01 </wgt>
<wgt id='58'> +1.7782206e+01 </wgt>
<wgt id='59'> +1.7872717e+01 </wgt>
<wgt id='60'> +1.7920284e+01 </wgt>
<wgt id='61'> +1.6432526e+01 </wgt>
<wgt id='62'> +1.7457546e+01 </wgt>
<wgt id='63'> +1.7678717e+01 </wgt>
<wgt id='64'> +1.7525313e+01 </wgt>
<wgt id='65'> +1.8785769e+01 </wgt>
<wgt id='66'> +1.7155289e+01 </wgt>
<wgt id='67'> +1.7533483e+01 </wgt>
<wgt id='68'> +1.8481251e+01 </wgt>
<wgt id='69'> +1.7016342e+01 </wgt>
<wgt id='70'> +1.7314356e+01 </wgt>
<wgt id='71'> +1.7568131e+01 </wgt>
<wgt id='72'> +1.7416394e+01 </wgt>
<wgt id='73'> +1.7590955e+01 </wgt>
<wgt id='74'> +1.8150268e+01 </wgt>
<wgt id='75'> +1.7885701e+01 </wgt>
<wgt id='76'> +1.7224000e+01 </wgt>
<wgt id='77'> +1.7388217e+01 </wgt>
<wgt id='78'> +1.7286176e+01 </wgt>
<wgt id='79'> +1.7466108e+01 </wgt>
<wgt id='80'> +1.7233934e+01 </wgt>
<wgt id='81'> +1.7266045e+01 </wgt>
<wgt id='82'> +1.7599031e+01 </wgt>
<wgt id='83'> +1.7418945e+01 </wgt>
<wgt id='84'> +1.8102107e+01 </wgt>
<wgt id='85'> +1.8089538e+01 </wgt>
<wgt id='86'> +1.7456169e+01 </wgt>
<wgt id='87'> +1.7692259e+01 </wgt>
<wgt id='88'> +1.7247886e+01 </wgt>
<wgt id='89'> +1.8130973e+01 </wgt>
<wgt id='90'> +1.7967560e+01 </wgt>
<wgt id='91'> +1.8054963e+01 </wgt>
<wgt id='92'> +1.6530171e+01 </wgt>
<wgt id='93'> +1.7613355e+01 </wgt>
<wgt id='94'> +1.7442062e+01 </wgt>
<wgt id='95'> +1.7245211e+01 </wgt>
<wgt id='96'> +1.8306811e+01 </wgt>
<wgt id='97'> +1.7561879e+01 </wgt>
<wgt id='98'> +1.7040934e+01 </wgt>
<wgt id='99'> +1.7398644e+01 </wgt>
<wgt id='100'> +1.7319534e+01 </wgt>
<wgt id='101'> +1.8531208e+01 </wgt>
<wgt id='102'> +1.7537201e+01 </wgt>
<wgt id='103'> +1.8635706e+01 </wgt>
<wgt id='104'> +1.7278666e+01 </wgt>
<wgt id='105'> +1.7999854e+01 </wgt>
<wgt id='106'> +1.6604419e+01 </wgt>
<wgt id='107'> +1.7290115e+01 </wgt>
<wgt id='108'> +1.6096025e+01 </wgt>
<wgt id='109'> +1.6960478e+01 </wgt>
<wgt id='110'> +1.7770048e+01 </wgt>
<wgt id='111'> +1.7137562e+01 </wgt>
<wgt id='112'> +1.6894971e+01 </wgt>
<wgt id='113'> +1.6758340e+01 </wgt>
<wgt id='114'> +1.7402540e+01 </wgt>
<wgt id='115'> +1.6875900e+01 </wgt>
<wgt id='116'> +1.7672190e+01 </wgt>
<wgt id='117'> +1.7456627e+01 </wgt>
<wgt id='118'> +1.8113195e+01 </wgt>
<wgt id='119'> +1.7253550e+01 </wgt>
<wgt id='120'> +1.7148750e+01 </wgt>
<wgt id='121'> +1.7497789e+01 </wgt>
<wgt id='122'> +1.7452118e+01 </wgt>
<wgt id='123'> +1.7513158e+01 </wgt>
<wgt id='124'> +1.8512839e+01 </wgt>
<wgt id='125'> +1.8688428e+01 </wgt>
<wgt id='126'> +1.7968488e+01 </wgt>
<wgt id='127'> +1.7990490e+01 </wgt>
<wgt id='128'> +1.6225163e+01 </wgt>
<wgt id='129'> +1.9002684e+01 </wgt>
<wgt id='130'> +1.7028261e+01 </wgt>
<wgt id='131'> +1.8245313e+01 </wgt>
<wgt id='132'> +1.7995193e+01 </wgt>
<wgt id='133'> +1.7762387e+01 </wgt>
<wgt id='134'> +1.7065518e+01 </wgt>
<wgt id='135'> +1.7907618e+01 </wgt>
<wgt id='136'> +1.7703221e+01 </wgt>
<wgt id='137'> +1.6712001e+01 </wgt>
<wgt id='138'> +1.6339451e+01 </wgt>
<wgt id='139'> +1.8096937e+01 </wgt>
<wgt id='140'> +1.8128676e+01 </wgt>
<wgt id='141'> +1.7391965e+01 </wgt>
<wgt id='142'> +1.7370176e+01 </wgt>
<wgt id='143'> +1.7736761e+01 </wgt>
<wgt id='144'> +1.7539506e+01 </wgt>
<wgt id='145'> +1.7402987e+01 </wgt>
</rwgt>
</event>
<event>
 3      1 +1.7556000e+01 1.25000000e+02 7.54677100e-03 1.23506900e-01
       21 -1    0    0  502  501 +0.0000000000e+00 +0.0000000000e+00 +3.9844562472e+02 3.9844562472e+02 0.0000000000e+00 0.0000e+00 1.0000e+00
       21 -1    0    0  501  502 -0.0000000000e+00 -0.0000000000e+00 -9.8037216565e+00 9.8037216565e+00 0.0000000000e+00 0.0000e+00 1.0000e+00
       25  1    1    2    0    0 +0.0000000000e+00 +0.0000000000e+00 +3.8864190306e+02 4.0824934638e+02 1.2500000000e+02 0.0000e+00 0.0000e+00
<mgrwt>
<rscale>  0 0.12500000E+03</rscale>
<asrwt>0</asrwt>
<pdfrwt beam="1">  1       21 0.61299315E-01 0.12500000E+03</pdfrwt>
<pdfrwt beam="2">  1       21 0.15082652E-02 0.12500000E+03</pdfrwt>
<totfact> 0.47498956E+06</totfact>
</mgrwt>
<rwgt>
<wgt id='1'> +1.6897061e+01 </wgt>
<wgt id='2'> +0.0000000e+00 </wgt>
<wgt id='3'> +1.6897061e+01 </wgt>
<wgt id='4'> +1.5856433e+01 </wgt>
<wgt id='5'> +1.6897061e+01 </wgt>
<wgt id='6'> +1.7556000e+01 </wgt>
<wgt id='7'> +0.0000000e+00 </wgt>
<wgt id='8'> +1.7556000e+01 </wgt>
<wgt id='9'> +1.6897061e+01 </wgt>
<wgt id='10'> +1.7556000e+01 </wgt>
<wgt id='11'> +1.7783979e+01 </wgt>
<wgt id='12'> +0.0000000e+00 </wgt>
<wgt id='13'> +1.7783979e+01 </wgt>
<wgt id='14'> +1.7556000e+01 </wgt>
<wgt id='15'> +1.7783979e+01 </wgt>
<wgt id='16'> +1.6897061e+01 </wgt>
<wgt id='17'> +0.0000000e+00 </wgt>
<wgt id='18'> +1.6897061e+01 </wgt>
<wgt id='19'> +1.5856433e+01 </wgt>
<wgt id='20'> +1.6897061e+01 </wgt>
<wgt id='21'> +0.0000000e+00 </wgt>
<wgt id='22'> +1.7556000e+01 </wgt>
<wgt id='23'> +1.6897061e+01 </wgt>
<wgt id='24'> +1.7556000e+01 </wgt>
<wgt id='25'> +1.7783979e+01 </wgt>
<wgt id='26'> +0.0000000e+00 </wgt>
<wgt id='27'> +1.7783979e+01 </wgt>
<wgt id='28'> +1.7556000e+01 </wgt>
<wgt id='29'> +1.7783979e+01 </wgt>
<wgt id='30'> +1.6897061e+01 </wgt>
<wgt id='31'> +0.0000000e+00 </wgt>
<wgt id='32'> +1.6897061e+01 </wgt>
<wgt id='33'> +1.5856433e+01 </wgt>
<wgt id='34'> +1.6897061e+01 </wgt>
<wgt id='35'> +1.7556000e+01 </wgt>
<wgt id='36'> +0.0000000e+00 </wgt>
<wgt id='37'> +1.7556000e+01 </wgt>
<wgt id='38'> +1.6897061e+01 </wgt>
<wgt id='39'> +1.7556000e+01 </wgt>
<wgt id='40'> +1.7783979e+01 </wgt>
<wgt id='41'> +0.0000000e+00 </wgt>
<wgt id='42'> +1.7783979e+01 </wgt>
<wgt id='43'> +1.7556000e+01 </wgt>
<wgt id='44'> +1.7783979e+01 </wgt>
<wgt id='45'> +1.7556000e+01 </wgt>
<wgt id='46'> +1.7550247e+01 </wgt>
<wgt id='47'> +1.7660464e+01 </wgt>
<wgt id='48'> +1.7544865e+01 </wgt>
<wgt id='49'> +1.7725823e+01 </wgt>
<wgt id='50'> +1.8920902e+01 </wgt>
<wgt id='51'> +1.7359068e+01 </wgt>
<wgt id='52'> +1.7603176e+01 </wgt>
<wgt id='53'> +1.7445783e+01 </wgt>
<wgt id='54'> +1.7614884e+01 </wgt>
<wgt id='55'> +1.6538689e+01 </wgt>
<wgt id='56'> +1.6836577e+01 </wgt>
<wgt id='57'> +1.7328800e+01 </wgt>
<wgt id='58'> +1.7942842e+01 </wgt>
<wgt id='59'> +1.7605776e+01 </wgt>
<wgt id='60'> +1.7671450e+01 </wgt>
<wgt id='61'> +1.7044608e+01 </wgt>
<wgt id='62'> +1.7447557e+01 </wgt>
<wgt id='63'> +1.7663484e+01 </wgt>
<wgt id='64'> +1.7605538e+01 </wgt>
<wgt id='65'> +1.8995355e+01 </wgt>
<wgt id='66'> +1.7139602e+01 </wgt>
<wgt id='67'> +1.7570283e+01 </wgt>
<wgt id='68'> +1.8340121e+01 </wgt>
<wgt id='69'> +1.6854769e+01 </wgt>
<wgt id='70'> +1.7335910e+01 </wgt>
<wgt id='71'> +1.7631830e+01 </wgt>
<wgt id='72'> +1.7573963e+01 </wgt>
<wgt id='73'> +1.7666882e+01 </wgt>
<wgt id='74'> +1.7970654e+01 </wgt>
<wgt id='75'> +1.7831215e+01 </wgt>
<wgt id='76'> +1.7186679e+01 </wgt>
<wgt id='77'> +1.7262033e+01 </wgt>
<wgt id='78'> +1.7517774e+01 </wgt>
<wgt id='79'> +1.7291057e+01 </wgt>
<wgt id='80'> +1.7351176e+01 </wgt>
<wgt id='81'> +1.7318670e+01 </wgt>
<wgt id='82'> +1.7811793e+01 </wgt>
<wgt id='83'> +1.7428747e+01 </wgt>
<wgt id='84'> +1.8200695e+01 </wgt>
<wgt id='85'> +1.8196050e+01 </wgt>
<wgt id='86'> +1.7371393e+01 </wgt>
<wgt id='87'> +1.7630880e+01 </wgt>
<wgt id='88'> +1.7314189e+01 </wgt>
<wgt id='89'> +1.8096272e+01 </wgt>
<wgt id='90'> +1.7895575e+01 </wgt>
<wgt id='91'> +1.8237020e+01 </wgt>
<wgt id='92'> +1.6681392e+01 </wgt>
<wgt id='93'> +1.7501128e+01 </wgt>
<wgt id='94'> +1.7564631e+01 </wgt>
<wgt id='95'> +1.7166267e+01 </wgt>
<wgt id='96'> +1.8262387e+01 </wgt>
<wgt id='97'> +1.7696026e+01 </wgt>
<wgt id='98'> +1.6931447e+01 </wgt>
<wgt id='99'> +1.7479292e+01 </wgt>
<wgt id='100'> +1.7664933e+01 </wgt>
<wgt id='101'> +1.8212820e+01 </wgt>
<wgt id='102'> +1.7199347e+01 </wgt>
<wgt id='103'> +1.8615199e+01 </wgt>
<wgt id='104'> +1.7226733e+01 </wgt>
<wgt id='105'> +1.8097003e+01 </wgt>
<wgt id='106'> +1.6739912e+01 </wgt>
<wgt id='107'> +1.7537254e+01 </wgt>
<wgt id='108'> +1.6264165e+01 </wgt>
<wgt id='109'> +1.7001095e+01 </wgt>
<wgt id='110'> +1.7821533e+01 </wgt>
<wgt id='111'> +1.7181058e+01 </wgt>
<wgt id='112'> +1.6987781e+01 </wgt>
<wgt id='113'> +1.6749334e+01 </wgt>
<wgt id='114'> +1.7571035e+01 </wgt>
<wgt id='115'> +1.7176191e+01 </wgt>
<wgt id='116'> +1.7441864e+01 </wgt>
<wgt id='117'> +1.7580391e+01 </wgt>
<wgt id='118'> +1.7911228e+01 </wgt>
<wgt id='119'> +1.7223895e+01 </wgt>
<wgt id='120'> +1.7269800e+01 </wgt>
<wgt id='121'> +1.7477898e+01 </wgt>
<wgt id='122'> +1.7444122e+01 </wgt>
<wgt id='123'> +1.7508348e+01 </wgt>
<wgt id='124'> +1.8281890e+01 </wgt>
<wgt id='125'> +1.8432724e+01 </wgt>
<wgt id='126'> +1.7964396e+01 </wgt>
<wgt id='127'> +1.7955011e+01 </wgt>
<wgt id='128'> +1.6366926e+01 </wgt>
<wgt id='129'> +1.9046364e+01 </wgt>
<wgt id='130'> +1.7120336e+01 </wgt>
<wgt id='131'> +1.8375963e+01 </wgt>
<wgt id='132'> +1.7703446e+01 </wgt>
<wgt id='133'> +1.7543584e+01 </wgt>
<wgt id='134'> +1.6937361e+01 </wgt>
<wgt id='135'> +1.7942264e+01 </wgt>
<wgt id='136'> +1.7355451e+01 </wgt>
<wgt id='137'> +1.6623335e+01 </wgt>
<wgt id='138'> +1.6115018e+01 </wgt>
<wgt id='139'> +1.7996508e+01 </wgt>
<wgt id='140'> +1.8294278e+01 </wgt>
<wgt id='141'> +1.7331462e+01 </wgt>
<wgt id='142'> +1.7721619e+01 </wgt>
<wgt id='143'> +1.7606871e+01 </wgt>
<wgt id='144'> +1.7677314e+01 </wgt>
<wgt id='145'> +1.7445312e+01 </wgt>
</rwgt>
</event>
<event>
 3      1 +1.7556000e+01 1.25000000e+02 7.54677100e-03 1.23506900e-01
       21 -1    0    0  502  501 +0.0000000000e+00 +0.0000000000e+00 +6.5074653355e+00 6.5074653355e+00 0.0000000000e+00 0.0000e+00 -1.0000e+00
       21 -1    0    0  501  502 -0.0000000000e+00 -0.0000000000e+00 -6.0027211804e+02 6.0027211804e+02 0.0000000000e+00 0.0000e+00 -1.0000e+00
       25  1    1    2    0    0 +0.0000000000e+00 +0.0000000000e+00 -5.9376465270e+02 6.0677958337e+02 1.2500000000e+02 0.0000e+00 0.0000e+00
<mgrwt>
<rscale>  0 0.12500000E+03</rscale>
<asrwt>0</asrwt>
<pdfrwt beam="1">  1       21 0.10011484E-02 0.12500000E+03</pdfrwt>
<pdfrwt beam="2">  1       21 0.92349568E-01 0.12500000E+03</pdfrwt>
<totfact> 0.36787814E+06</totfact>
</mgrwt>
<rwgt>
<wgt id='1'> +1.7051000e+01 </wgt>
<wgt id='2'> +0.0000000e+00 </wgt>
<wgt id='3'> +1.7051000e+01 </wgt>
<wgt id='4'> +1.6162034e+01 </wgt>
<wgt id='5'> +1.7051000e+01 </wgt>
<wgt id='6'> +1.7556000e+01 </wgt>
<wgt id='7'> +0.0000000e+00 </wgt>
<wgt id='8'> +1.7556000e+01 </wgt>
<wgt id='9'> +1.7051000e+01 </wgt>
<wgt id='10'> +1.7556000e+01 </wgt>
<wgt id='11'> +1.7637497e+01 </wgt>
<wgt id='12'> +0.0000000e+00 </wgt>
<wgt id='13'> +1.7637497e+01 </wgt>
<wgt id='14'> +1.7556000e+01 </wgt>
<wgt id='15'> +1.7637497e+01 </wgt>
<wgt id='16'> +1.7051000e+01 </wgt>
<wgt id='17'> +0.0000000e+00 </wgt>
<wgt id='18'> +1.7051000e+01 </wgt>
<wgt id='19'> +1.6162034e+01 </wgt>
<wgt id='20'> +1.7051000e+01 </wgt>
<wgt id='21'> +0.0000000e+00 </wgt>
<wgt id='22'> +1.7556000e+01 </wgt>
<wgt id='23'> +1.7051000e+01 </wgt>
<wgt id='24'> +1.7556000e+01 </wgt>
<wgt id='25'> +1.7637497e+01 </wgt>
<wgt id='26'> +0.0000000e+00 </wgt>
<wgt id='27'> +1.7637497e+01 </wgt>
<wgt id='28'> +1.7556000e+01 </wgt>
<wgt id='29'> +1.7637497e+01 </wgt>
<wgt id='30'> +1.7051000e+01 </wgt>
<wgt id='31'> +0.0000000e+00 </wgt>
<wgt id='32'> +1.7051000e+01 </wgt>
<wgt id='33'> +1.6162034e+01 </wgt>
<wgt id='34'> +1.7051000e+01 </wgt>
<wgt id='35'> +1.7556000e+01 </wgt>
<wgt id='36'> +0.0000000e+00 </wgt>
<wgt id='37'> +1.7556000e+01 </wgt>
<wgt id='38'> +1.7051000e+01 </wgt>
<wgt id='39'> +1.7556000e+01 </wgt>
<wgt id='40'> +1.7637497e+01 </wgt>
<wgt id='41'> +0.0000000e+00 </wgt>
<wgt id='42'> +1.7637497e+01 </wgt>
<wgt id='43'> +1.7556000e+01 </wgt>
<wgt id='44'> +1.7637497e+01 </wgt>
<wgt id='45'> +1.7556000e+01 </wgt>
<wgt id='46'> +1.7854781e+01 </wgt>
<wgt id='47'> +1.7634741e+01 </wgt>
<wgt id='48'> +1.7664168e+01 </wgt>
<wgt id='49'> +1.7625039e+01 </wgt>
<wgt id='50'> +1.9336514e+01 </wgt>
<wgt id='51'> +1.7307092e+01 </wgt>
<wgt id='52'> +1.7689829e+01 </wgt>
<wgt id='53'> +1.7121095e+01 </wgt>
<wgt id='54'> +1.7723141e+01 </wgt>
<wgt id='55'> +1.7069341e+01 </wgt>
<wgt id='56'> +1.6566587e+01 </wgt>
<wgt id='57'> +1.7620305e+01 </wgt>
<wgt id='58'> +1.7554673e+01 </wgt>
<wgt id='59'> +1.8209883e+01 </wgt>
<wgt id='60'> +1.8187367e+01 </wgt>
<wgt id='61'> +1.5841873e+01 </wgt>
<wgt id='62'> +1.7426845e+01 </wgt>
<wgt id='63'> +1.7718443e+01 </wgt>
<wgt id='64'> +1.7466557e+01 </wgt>
<wgt id='65'> +1.8463852e+01 </wgt>
<wgt id='66'> +1.7183922e+01 </wgt>
<wgt id='67'> +1.7486541e+01 </wgt>
<wgt id='68'> +1.8653143e+01 </wgt>
<wgt id='69'> +1.7214440e+01 </wgt>
<wgt id='70'> +1.7322670e+01 </wgt>
<wgt id='71'> +1.7458405e+01 </wgt>
<wgt id='72'> +1.7252288e+01 </wgt>
<wgt id='73'> +1.7452479e+01 </wgt>
<wgt id='74'> +1.8378944e+01 </wgt>
<wgt id='75'> +1.7954120e+01 </wgt>
<wgt id='76'> +1.7305513e+01 </wgt>
<wgt id='77'> +1.7506561e+01 </wgt>
<wgt id='78'> +1.6973588e+01 </wgt>
<wgt id='79'> +1.7691299e+01 </wgt>
<wgt id='80'> +1.7075837e+01 </wgt>
<wgt id='81'> +1.7229114e+01 </wgt>
<wgt id='82'> +1.7321590e+01 </wgt>
<wgt id='83'> +1.7380349e+01 </wgt>
<wgt id='84'> +1.7937109e+01 </wgt>
<wgt id='85'> +1.7892697e+01 </wgt>
<wgt id='86'> +1.7563975e+01 </wgt>
<wgt id='87'> +1.7747190e+01 </wgt>
<wgt id='88'> +1.7161717e+01 </wgt>
<wgt id='89'> +1.8076354e+01 </wgt>
<wgt id='90'> +1.8002938e+01 </wgt>
<wgt id='91'> +1.7763367e+01 </wgt>
<wgt id='92'> +1.6397339e+01 </wgt>
<wgt id='93'> +1.7732934e+01 </wgt>
<wgt id='94'> +1.7264472e+01 </wgt>
<wgt id='95'> +1.7402770e+01 </wgt>
<wgt id='96'> +1.8311510e+01 </wgt>
<wgt id='97'> +1.7368347e+01 </wgt>
<wgt id='98'> +1.7225771e+01 </wgt>
<wgt id='99'> +1.7232813e+01 </wgt>
<wgt id='100'> +1.6834150e+01 </wgt>
<wgt id='101'> +1.8915663e+01 </wgt>
<wgt id='102'> +1.7966853e+01 </wgt>
<wgt id='103'> +1.8582227e+01 </wgt>
<wgt id='104'> +1.7362956e+01 </wgt>
<wgt id='105'> +1.7901534e+01 </wgt>
<wgt id='106'> +1.6491474e+01 </wgt>
<wgt id='107'> +1.7018365e+01 </wgt>
<wgt id='108'> +1.5955439e+01 </wgt>
<wgt id='109'> +1.6962138e+01 </wgt>
<wgt id='110'> +1.7677520e+01 </wgt>
<wgt id='111'> +1.7106548e+01 </wgt>
<wgt id='112'> +1.6861118e+01 </wgt>
<wgt id='113'> +1.6829944e+01 </wgt>
<wgt id='114'> +1.7280017e+01 </wgt>
<wgt id='115'> +1.6544703e+01 </wgt>
<wgt id='116'> +1.7952154e+01 </wgt>
<wgt id='117'> +1.7309709e+01 </wgt>
<wgt id='118'> +1.8323956e+01 </wgt>
<wgt id='119'> +1.7361257e+01 </wgt>
<wgt id='120'> +1.7064838e+01 </wgt>
<wgt id='121'> +1.7548686e+01 </wgt>
<wgt id='122'> +1.7450203e+01 </wgt>
<wgt id='123'> +1.7491076e+01 </wgt>
<wgt id='124'> +1.8783443e+01 </wgt>
<wgt id='125'> +1.9035933e+01 </wgt>
<wgt id='126'> +1.7930851e+01 </wgt>
<wgt id='127'> +1.7983723e+01 </wgt>
<wgt id='128'> +1.6096786e+01 </wgt>
<wgt id='129'> +1.8903105e+01 </wgt>
<wgt id='130'> +1.6943728e+01 </wgt>
<wgt id='131'> +1.8040234e+01 </wgt>
<wgt id='132'> +1.8361052e+01 </wgt>
<wgt id='133'> +1.8037893e+01 </wgt>
<wgt id='134'> +1.7252441e+01 </wgt>
<wgt id='135'> +1.7832765e+01 </wgt>
<wgt id='136'> +1.8201523e+01 </wgt>
<wgt id='137'> +1.6841162e+01 </wgt>
<wgt id='138'> +1.6624517e+01 </wgt>
<wgt id='139'> +1.8201046e+01 </wgt>
<wgt id='140'> +1.7910942e+01 </wgt>
<wgt id='141'> +1.7522133e+01 </wgt>
<wgt id='142'> +1.6944450e+01 </wgt>
<wgt id='143'> +1.7886234e+01 </wgt>
<wgt id='144'> +1.7347192e+01 </wgt>
<wgt id='145'> +1.7295299e+01 </wgt>
</rwgt>
</event>
<event>
 3      1 +1.7556000e+01 1.25000000e+02 7.54677100e-03 1.23506900e-01
       21 -1    0    0  502  501 +0.0000000000e+00 +0.0000000000e+00 +1.1308908352e+02 1.1308908352e+02 0.0000000000e+00 0.0000e+00 -1.0000e+00
       21 -1    0    0  501  502 -0.0000000000e+00 -0.0000000000e+00 -3.4541353403e+01 3.4541353403e+01 0.0000000000e+00 0.0000e+00 -1.0000e+00
       25  1    1    2    0    0 +0.0000000000e+00 +0.0000000000e+00 +7.8547730119e+01 1.4763043693e+02 1.2500000000e+02 0.0000e+00 0.0000e+00
<mgrwt>
<rscale>  0 0.12500000E+03</rscale>
<asrwt>0</asrwt>
<pdfrwt beam="1">  1       21 0.17398320E-01 0.12500000E+03</pdfrwt>
<pdfrwt beam="2">  1       21 0.53140544E-02 0.12500000E+03</pdfrwt>
<totfact> 0.71058145E+06</totfact>
</mgrwt>
<rwgt>
<wgt id='1'> +1.6669570e+01 </wgt>
<wgt id='2'> +0.0000000e+00 </wgt>
<wgt id='3'> +1.6669570e+01 </wgt>
<wgt id='4'> +1.5400990e+01 </wgt>
<wgt id='5'> +1.6669570e+01 </wgt>
<wgt id='6'> +1.7556000e+01 </wgt>
<wgt id='7'> +0.0000000e+00 </wgt>
<wgt id='8'> +1.7556000e+01 </wgt>
<wgt id='9'> +1.6669570e+01 </wgt>
<wgt id='10'> +1.7556000e+01 </wgt>
<wgt id='11'> +1.7998523e+01 </wgt>
<wgt id='12'> +0.0000000e+00 </wgt>
<wgt id='13'> +1.7998523e+01 </wgt>
<wgt id='14'> +1.7556000e+01 </wgt>
<wgt id='15'> +1.7998523e+01 </wgt>
<wgt id='16'> +1.6669570e+01 </wgt>
<wgt id='17'> +0.0000000e+00 </wgt>
<wgt id='18'> +1.6669570e+01 </wgt>
<wgt id='19'> +1.5400990e+01 </wgt>
<wgt id='20'> +1.6669570e+01 </wgt>
<wgt id='21'> +0.0000000e+00 </wgt>
<wgt id='22'> +1.7556000e+01 </wgt>
<wgt id='23'> +1.6669570e+01 </wgt>
<wgt id='24'> +1.7556000e+01 </wgt>
<wgt id='25'> +1.7998523e+01 </wgt>
<wgt id='26'> +0.0000000e+00 </wgt>
<wgt id='27'> +1.7998523e+01 </wgt>
<wgt id='28'> +1.7556000e+01 </wgt>
<wgt id='29'> +1.7998523e+01 </wgt>
<wgt id='30'> +1.6669570e+01 </wgt>
<wgt id='31'> +0.0000000e+00 </wgt>
<wgt id='32'> +1.6669570e+01 </wgt>
<wgt id='33'> +1.5400990e+01 </wgt>
<wgt id='34'> +1.6669570e+01 </wgt>
<wgt id='35'> +1.7556000e+01 </wgt>
<wgt id='36'> +0.0000000e+00 </wgt>
<wgt id='37'> +1.7556000e+01 </wgt>
<wgt id='38'> +1.6669570e+01 </wgt>
<wgt id='39'> +1.7556000e+01 </wgt>
<wgt id='40'> +1.7998523e+01 </wgt>
<wgt id='41'> +0.0000000e+00 </wgt>
<wgt id='42'> +1.7998523e+01 </wgt>
<wgt id='43'> +1.7556000e+01 </wgt>
<wgt id='44'> +1.7998523e+01 </wgt>
<wgt id='45'> +1.7556000e+01 </wgt>
<wgt id='46'> +1.7010656e+01 </wgt>
<wgt id='47'> +1.7512411e+01 </wgt>
<wgt id='48'> +1.7173080e+01 </wgt>
<wgt id='49'> +1.7586458e+01 </wgt>
<wgt id='50'> +1.7943604e+01 </wgt>
<wgt id='51'> +1.7283101e+01 </wgt>
<wgt id='52'> +1.7398279e+01 </wgt>
<wgt id='53'> +1.7984155e+01 </wgt>
<wgt id='54'> +1.7640780e+01 </wgt>
<wgt id='55'> +1.6592435e+01 </wgt>
<wgt id='56'> +1.7327360e+01 </wgt>
<wgt id='57'> +1.7380654e+01 </wgt>
<wgt id='58'> +1.8340011e+01 </wgt>
<wgt id='59'> +1.7029522e+01 </wgt>
<wgt id='60'> +1.6851913e+01 </wgt>
<wgt id='61'> +1.8100160e+01 </wgt>
<wgt id='62'> +1.7235848e+01 </wgt>
<wgt id='63'> +1.7608264e+01 </wgt>
<wgt id='64'> +1.8008186e+01 </wgt>
<wgt id='65'> +1.9308899e+01 </wgt>
<wgt id='66'> +1.7103410e+01 </wgt>
<wgt id='67'> +1.7674412e+01 </wgt>
<wgt id='68'> +1.7950135e+01 </wgt>
<wgt id='69'> +1.6304594e+01 </wgt>
<wgt id='70'> +1.7527385e+01 </wgt>
<wgt id='71'> +1.7821572e+01 </wgt>
<wgt id='72'> +1.8589933e+01 </wgt>
<wgt id='73'> +1.7751744e+01 </wgt>
<wgt id='74'> +1.7382378e+01 </wgt>
<wgt id='75'> +1.7615406e+01 </wgt>
<wgt id='76'> +1.7422340e+01 </wgt>
<wgt id='77'> +1.6801987e+01 </wgt>
<wgt id='78'> +1.8089545e+01 </wgt>
<wgt id='79'> +1.6815954e+01 </wgt>
<wgt id='80'> +1.7640077e+01 </wgt>
<wgt id='81'> +1.7612645e+01 </wgt>
<wgt id='82'> +1.8137735e+01 </wgt>
<wgt id='83'> +1.7278427e+01 </wgt>
<wgt id='84'> +1.8213457e+01 </wgt>
<wgt id='85'> +1.8082663e+01 </wgt>
<wgt id='86'> +1.7042751e+01 </wgt>
<wgt id='87'> +1.7371968e+01 </wgt>
<wgt id='88'> +1.7346561e+01 </wgt>
<wgt id='89'> +1.7618931e+01 </wgt>
<wgt id='90'> +1.7612974e+01 </wgt>
<wgt id='91'> +1.8458479e+01 </wgt>
<wgt id='92'> +1.7859316e+01 </wgt>
<wgt id='93'> +1.7037948e+01 </wgt>
<wgt id='94'> +1.7934170e+01 </wgt>
<wgt id='95'> +1.7456619e+01 </wgt>
<wgt id='96'> +1.7627510e+01 </wgt>
<wgt id='97'> +1.8036103e+01 </wgt>
<wgt id='98'> +1.6841827e+01 </wgt>
<wgt id='99'> +1.7456825e+01 </wgt>
<wgt id='100'> +1.8531655e+01 </wgt>
<wgt id='101'> +1.7206139e+01 </wgt>
<wgt id='102'> +1.6266211e+01 </wgt>
<wgt id='103'> +1.8156289e+01 </wgt>
<wgt id='104'> +1.7085854e+01 </wgt>
<wgt id='105'> +1.8605915e+01 </wgt>
<wgt id='106'> +1.7665267e+01 </wgt>
<wgt id='107'> +1.8468528e+01 </wgt>
<wgt id='108'> +1.7203320e+01 </wgt>
<wgt id='109'> +1.7478397e+01 </wgt>
<wgt id='110'> +1.7890073e+01 </wgt>
<wgt id='111'> +1.7559812e+01 </wgt>
<wgt id='112'> +1.7497433e+01 </wgt>
<wgt id='113'> +1.7072895e+01 </wgt>
<wgt id='114'> +1.8512101e+01 </wgt>
<wgt id='115'> +1.8216402e+01 </wgt>
<wgt id='116'> +1.6653314e+01 </wgt>
<wgt id='117'> +1.7917421e+01 </wgt>
<wgt id='118'> +1.7114050e+01 </wgt>
<wgt id='119'> +1.7482465e+01 </wgt>
<wgt id='120'> +1.7857626e+01 </wgt>
<wgt id='121'> +1.7673878e+01 </wgt>
<wgt id='122'> +1.7532660e+01 </wgt>
<wgt id='123'> +1.7329340e+01 </wgt>
<wgt id='124'> +1.7504793e+01 </wgt>
<wgt id='125'> +1.7706270e+01 </wgt>
<wgt id='126'> +1.7622359e+01 </wgt>
<wgt id='127'> +1.7606800e+01 </wgt>
<wgt id='128'> +1.6931587e+01 </wgt>
<wgt id='129'> +1.8975675e+01 </wgt>
<wgt id='130'> +1.7150237e+01 </wgt>
<wgt id='131'> +1.8461918e+01 </wgt>
<wgt id='132'> +1.7148045e+01 </wgt>
<wgt id='133'> +1.6897551e+01 </wgt>
<wgt id='134'> +1.6823680e+01 </wgt>
<wgt id='135'> +1.7891542e+01 </wgt>
<wgt id='136'> +1.6873184e+01 </wgt>
<wgt id='137'> +1.6429809e+01 </wgt>
<wgt id='138'> +1.5393875e+01 </wgt>
<wgt id='139'> +1.7567408e+01 </wgt>
<wgt id='140'> +1.8668605e+01 </wgt>
<wgt id='141'> +1.7282215e+01 </wgt>
<wgt id='142'> +1.8348089e+01 </wgt>
<wgt id='143'> +1.7331530e+01 </wgt>
<wgt id='144'> +1.8120788e+01 </wgt>
<wgt id='145'> +1.7502978e+01 </wgt>
</rwgt>
</event>
<event>
 3      1 +1.7556000e+01 1.25000000e+02 7.54677100e-03 1.23506900e-01
       21 -1    0    0  502  501 +0.0000000000e+00 +0.0000000000e+00 +3.5889535887e+02 3.5889535887e+02 0.0000000000e+00 0.0000e+00 -1.0000e+00
       21 -1    0    0  501  502 -0.0000000000e+00 -0.0000000000e+00 -1.0884091709e+01 1.0884091709e+01 0.0000000000e+00 0.0000e+00 -1.0000e+00
       25  1    1    2    0    0 +0.0000000000e+00 +0.0000000000e+00 +3.4801126716e+02 3.6977945058e+02 1.2500000000e+02 0.0000e+00 0.0000e+00
<mgrwt>
<rscale>  0 0.12500000E+03</rscale>
<asrwt>0</asrwt>
<pdfrwt beam="1">  1       21 0.55214662E-01 0.12500000E+03</pdfrwt>
<pdfrwt beam="2">  1       21 0.16744759E-02 0.12500000E+03</pdfrwt>
<totfact> 0.50110025E+06</totfact>
</mgrwt>
<rwgt>
<wgt id='1'> +1.6864871e+01 </wgt>
<wgt id='2'> +0.0000000e+00 </wgt>
<wgt id='3'> +1.6864871e+01 </wgt>
<wgt id='4'> +1.5792468e+01 </wgt>
<wgt id='5'> +1.6864871e+01 </wgt>
<wgt id='6'> +1.7556000e+01 </wgt>
<wgt id='7'> +0.0000000e+00 </wgt>
<wgt id='8'> +1.7556000e+01 </wgt>
<wgt id='9'> +1.6864871e+01 </wgt>
<wgt id='10'> +1.7556000e+01 </wgt>
<wgt id='11'> +1.7814658e+01 </wgt>
<wgt id='12'> +0.0000000e+00 </wgt>
<wgt id='13'> +1.7814658e+01 </wgt>
<wgt id='14'> +1.7556000e+01 </wgt>
<wgt id='15'> +1.7814658e+01 </wgt>
<wgt id='16'> +1.6864871e+01 </wgt>
<wgt id='17'> +0.0000000e+00 </wgt>
<wgt id='18'> +1.6864871e+01 </wgt>
<wgt id='19'> +1.5792468e+01 </wgt>
<wgt id='20'> +1.6864871e+01 </wgt>
<wgt id='21'> +0.0000000e+00 </wgt>
<wgt id='22'> +1.7556000e+01 </wgt>
<wgt id='23'> +1.6864871e+01 </wgt>
<wgt id='24'> +1.7556000e+01 </wgt>
<wgt id='25'> +1.7814658e+01 </wgt>
<wgt id='26'> +0.0000000e+00 </wgt>
<wgt id='27'> +1.7814658e+01 </wgt>
<wgt id='28'> +1.7556000e+01 </wgt>
<wgt id='29'> +1.7814658e+01 </wgt>
<wgt id='30'> +1.6864871e+01 </wgt>
<wgt id='31'> +0.0000000e+00 </wgt>
<wgt id='32'> +1.6864871e+01 </wgt>
<wgt id='33'> +1.5792468e+01 </wgt>
<wgt id='34'> +1.6864871e+01 </wgt>
<wgt id='35'> +1.7556000e+01 </wgt>
<wgt id='36'> +0.0000000e+00 </wgt>
<wgt id='37'> +1.7556000e+01 </wgt>
<wgt id='38'> +1.6864871e+01 </wgt>
<wgt id='39'> +1.7556000e+01 </wgt>
<wgt id='40'> +1.7814658e+01 </wgt>
<wgt id='41'> +0.0000000e+00 </wgt>
<wgt id='42'> +1.7814658e+01 </wgt>
<wgt id='43'> +1.7556000e+01 </wgt>
<wgt id='44'> +1.7814658e+01 </wgt>
<wgt id='45'> +1.7556000e+01 </wgt>
<wgt id='46'> +1.7480030e+01 </wgt>
<wgt id='47'> +1.7653021e+01 </wgt>
<wgt id='48'> +1.7504721e+01 </wgt>
<wgt id='49'> +1.7726329e+01 </wgt>
<wgt id='50'> +1.8808470e+01 </wgt>
<wgt id='51'> +1.7357749e+01 </wgt>
<wgt id='52'> +1.7574033e+01 </wgt>
<wgt id='53'> +1.7520047e+01 </wgt>
<wgt id='54'> +1.7609019e+01 </wgt>
<wgt id='55'> +1.6485789e+01 </wgt>
<wgt id='56'> +1.6904853e+01 </wgt>
<wgt id='57'> +1.7298857e+01 </wgt>
<wgt id='58'> +1.8009543e+01 </wgt>
<wgt id='59'> +1.7497025e+01 </wgt>
<wgt id='60'> +1.7556679e+01 </wgt>
<wgt id='61'> +1.7265138e+01 </wgt>
<wgt id='62'> +1.7433524e+01 </wgt>
<wgt id='63'> +1.7657898e+01 </wgt>
<wgt id='64'> +1.7654766e+01 </wgt>
<wgt id='65'> +1.9068049e+01 </wgt>
<wgt id='66'> +1.7133350e+01 </wgt>
<wgt id='67'> +1.7585464e+01 </wgt>
<wgt id='68'> +1.8279335e+01 </wgt>
<wgt id='69'> +1.6780782e+01 </wgt>
<wgt id='70'> +1.7352866e+01 </wgt>
<wgt id='71'> +1.7656278e+01 </wgt>
<wgt id='72'> +1.7670103e+01 </wgt>
<wgt id='73'> +1.7693372e+01 </wgt>
<wgt id='74'> +1.7889202e+01 </wgt>
<wgt id='75'> +1.7805918e+01 </wgt>
<wgt id='76'> +1.7186840e+01 </wgt>
<wgt id='77'> +1.7200852e+01 </wgt>
<wgt id='78'> +1.7615080e+01 </wgt>
<wgt id='79'> +1.7217204e+01 </wgt>
<wgt id='80'> +1.7397745e+01 </wgt>
<wgt id='81'> +1.7349551e+01 </wgt>
<wgt id='82'> +1.7889375e+01 </wgt>
<wgt id='83'> +1.7423045e+01 </wgt>
<wgt id='84'> +1.8227123e+01 </wgt>
<wgt id='85'> +1.8221642e+01 </wgt>
<wgt id='86'> +1.7330564e+01 </wgt>
<wgt id='87'> +1.7599619e+01 </wgt>
<wgt id='88'> +1.7333274e+01 </wgt>
<wgt id='89'> +1.8059444e+01 </wgt>
<wgt id='90'> +1.7857392e+01 </wgt>
<wgt id='91'> +1.8298971e+01 </wgt>
<wgt id='92'> +1.6780656e+01 </wgt>
<wgt id='93'> +1.7445636e+01 </wgt>
<wgt id='94'> +1.7617407e+01 </wgt>
<wgt id='95'> +1.7159199e+01 </wgt>
<wgt id='96'> +1.8215506e+01 </wgt>
<wgt id='97'> +1.7750988e+01 </wgt>
<wgt id='98'> +1.6894462e+01 </wgt>
<wgt id='99'> +1.7501631e+01 </wgt>
<wgt id='100'> +1.7808127e+01 </wgt>
<wgt id='101'> +1.8067638e+01 </wgt>
<wgt id='102'> +1.7053803e+01 </wgt>
<wgt id='103'> +1.8583065e+01 </wgt>
<wgt id='104'> +1.7205240e+01 </wgt>
<wgt id='105'> +1.8150421e+01 </wgt>
<wgt id='106'> +1.6828774e+01 </wgt>
<wgt id='107'> +1.7658463e+01 </wgt>
<wgt id='108'> +1.6363830e+01 </wgt>
<wgt id='109'> +1.7040786e+01 </wgt>
<wgt id='110'> +1.7839366e+01 </wgt>
<wgt id='111'> +1.7213231e+01 </wgt>
<wgt id='112'> +1.7045524e+01 </wgt>
<wgt id='113'> +1.6767107e+01 </wgt>
<wgt id='114'> +1.7673625e+01 </wgt>
<wgt id='115'> +1.7322625e+01 </wgt>
<wgt id='116'> +1.7335405e+01 </wgt>
<wgt id='117'> +1.7635971e+01 </wgt>
<wgt id='118'> +1.7811201e+01 </wgt>
<wgt id='119'> +1.7231124e+01 </wgt>
<wgt id='120'> +1.7346511e+01 </wgt>
<wgt id='121'> +1.7483893e+01 </wgt>
<wgt id='122'> +1.7447107e+01 </wgt>
<wgt id='123'> +1.7498045e+01 </wgt>
<wgt id='124'> +1.8173344e+01 </wgt>
<wgt id='125'> +1.8322055e+01 </wgt>
<wgt id='126'> +1.7948021e+01 </wgt>
<wgt id='127'> +1.7925863e+01 </wgt>
<wgt id='128'> +1.6440008e+01 </wgt>
<wgt id='129'> +1.9051710e+01 </wgt>
<wgt id='130'> +1.7146703e+01 </wgt>
<wgt id='131'> +1.8415837e+01 </wgt>
<wgt id='132'> +1.7586871e+01 </wgt>
<wgt id='133'> +1.7447744e+01 </wgt>
<wgt id='134'> +1.6894176e+01 </wgt>
<wgt id='135'> +1.7948750e+01 </wgt>
<wgt id='136'> +1.7230566e+01 </wgt>
<wgt id='137'> +1.6588912e+01 </wgt>
<wgt id='138'> +1.6015250e+01 </wgt>
<wgt id='139'> +1.7945563e+01 </wgt>
<wgt id='140'> +1.8362094e+01 </wgt>
<wgt id='141'> +1.7312533e+01 </wgt>
<wgt id='142'> +1.7852240e+01 </wgt>
<wgt id='143'> +1.7552414e+01 </wgt>
<wgt id='144'> +1.7737789e+01 </wgt>
<wgt id='145'> +1.7457266e+01 </wgt>
</rwgt>
</event>
<event>
 3      1 +1.7556000e+01 1.25000000e+02 7.54677100e-03 1.23506900e-01
       21 -1    0    0  502  501 +0.0000000000e+00 +0.0000000000e+00 +8.1028827818e+01 8.1028827818e+01 0.0000000000e+00 0.0000e+00 -1.0000e+00
       21 -1    0    0  501  502 -0.0000000000e+00 -0.0000000000e+00 -4.8208151410e+01 4.8208151410e+01 0.0000000000e+00 0.0000e+00 -1.0000e+00
       25  1    1    2    0    0 +0.0000000000e+00 +0.0000000000e+00 +3.2820676408e+01 1.2923697923e+02 1.2500000000e+02 0.0000e+00 0.0000e+00
<mgrwt>
<rscale>  0 0.12500000E+03</rscale>
<asrwt>0</asrwt>
<pdfrwt beam="1">  1       21 0.12465973E-01 0.12500000E+03</pdfrwt>
<pdfrwt beam="2">  1       21 0.74166387E-02 0.12500000E+03</pdfrwt>
<totfact> 0.73467074E+06</totfact>
</mgrwt>
<rwgt>
<wgt id='1'> +1.6650438e+01 </wgt>
<wgt id='2'> +0.0000000e+00 </wgt>
<wgt id='3'> +1.6650438e+01 </wgt>
<wgt id='4'> +1.5362446e+01 </wgt>
<wgt id='5'> +1.6650438e+01 </wgt>
<wgt id='6'> +1.7556000e+01 </wgt>
<wgt id='7'> +0.0000000e+00 </wgt>
<wgt id='8'> +1.7556000e+01 </wgt>
<wgt id='9'> +1.6650438e+01 </wgt>
<wgt id='10'> +1.7556000e+01 </wgt>
<wgt id='11'> +1.8016390e+01 </wgt>
<wgt id='12'> +0.0000000e+00 </wgt>
<wgt id='13'> +1.8016390e+01 </wgt>
<wgt id='14'> +1.7556000e+01 </wgt>
<wgt id='15'> +1.8016390e+01 </wgt>
<wgt id='16'> +1.6650438e+01 </wgt>
<wgt id='17'> +0.0000000e+00 </wgt>
<wgt id='18'> +1.6650438e+01 </wgt>
<wgt id='19'> +1.5362446e+01 </wgt>
<wgt id='20'> +1.6650438e+01 </wgt>
<wgt id='21'> +0.0000000e+00 </wgt>
<wgt id='22'> +1.7556000e+01 </wgt>
<wgt id='23'> +1.6650438e+01 </wgt>
<wgt id='24'> +1.7556000e+01 </wgt>
<wgt id='25'> +1.8016390e+01 </wgt>
<wgt id='26'> +0.0000000e+00 </wgt>
<wgt id='27'> +1.8016390e+01 </wgt>
<wgt id='28'> +1.7556000e+01 </wgt>
<wgt id='29'> +1.8016390e+01 </wgt>
<wgt id='30'> +1.6650438e+01 </wgt>
<wgt id='31'> +0.0000000e+00 </wgt>
<wgt id='32'> +1.6650438e+01 </wgt>
<wgt id='33'> +1.5362446e+01 </wgt>
<wgt id='34'> +1.6650438e+01 </wgt>
<wgt id='35'> +1.7556000e+01 </wgt>
<wgt id='36'> +0.0000000e+00 </wgt>
<wgt id='37'> +1.7556000e+01 </wgt>
<wgt id='38'> +1.6650438e+01 </wgt>
<wgt id='39'> +1.7556000e+01 </wgt>
<wgt id='40'> +1.8016390e+01 </wgt>
<wgt id='41'> +0.0000000e+00 </wgt>
<wgt id='42'> +1.8016390e+01 </wgt>
<wgt id='43'> +1.7556000e+01 </wgt>
<wgt id='44'> +1.8016390e+01 </wgt>
<wgt id='45'> +1.7556000e+01 </wgt>
<wgt id='46'> +1.6968639e+01 </wgt>
<wgt id='47'> +1.7491777e+01 </wgt>
<wgt id='48'> +1.7137057e+01 </wgt>
<wgt id='49'> +1.7563118e+01 </wgt>
<wgt id='50'> +1.7852900e+01 </wgt>
<wgt id='51'> +1.7273297e+01 </wgt>
<wgt id='52'> +1.7394211e+01 </wgt>
<wgt id='53'> +1.8017590e+01 </wgt>
<wgt id='54'> +1.7641598e+01 </wgt>
<wgt id='55'> +1.6640204e+01 </wgt>
<wgt id='56'> +1.7360087e+01 </wgt>
<wgt id='57'> +1.7412031e+01 </wgt>
<wgt id='58'> +1.8364140e+01 </wgt>
<wgt id='59'> +1.7014670e+01 </wgt>
<wgt id='60'> +1.6799908e+01 </wgt>
<wgt id='61'> +1.8140427e+01 </wgt>
<wgt id='62'> +1.7211260e+01 </wgt>
<wgt id='63'> +1.7599545e+01 </wgt>
<wgt id='64'> +1.8029479e+01 </wgt>
<wgt id='65'> +1.9311036e+01 </wgt>
<wgt id='66'> +1.7102041e+01 </wgt>
<wgt id='67'> +1.7683621e+01 </wgt>
<wgt id='68'> +1.7923121e+01 </wgt>
<wgt id='69'> +1.6258753e+01 </wgt>
<wgt id='70'> +1.7547504e+01 </wgt>
<wgt id='71'> +1.7846662e+01 </wgt>
<wgt id='72'> +1.8704144e+01 </wgt>
<wgt id='73'> +1.7750331e+01 </wgt>
<wgt id='74'> +1.7336561e+01 </wgt>
<wgt id='75'> +1.7592604e+01 </wgt>
<wgt id='76'> +1.7468118e+01 </wgt>
<wgt id='77'> +1.6771783e+01 </wgt>
<wgt id='78'> +1.8116503e+01 </wgt>
<wgt id='79'> +1.6787333e+01 </wgt>
<wgt id='80'> +1.7663190e+01 </wgt>
<wgt id='81'> +1.7641653e+01 </wgt>
<wgt id='82'> +1.8139508e+01 </wgt>
<wgt id='83'> +1.7256253e+01 </wgt>
<wgt id='84'> +1.8197261e+01 </wgt>
<wgt id='85'> +1.8041419e+01 </wgt>
<wgt id='86'> +1.7013545e+01 </wgt>
<wgt id='87'> +1.7350808e+01 </wgt>
<wgt id='88'> +1.7339990e+01 </wgt>
<wgt id='89'> +1.7569592e+01 </wgt>
<wgt id='90'> +1.7598840e+01 </wgt>
<wgt id='91'> +1.8455338e+01 </wgt>
<wgt id='92'> +1.8014278e+01 </wgt>
<wgt id='93'> +1.6997233e+01 </wgt>
<wgt id='94'> +1.7968464e+01 </wgt>
<wgt id='95'> +1.7509728e+01 </wgt>
<wgt id='96'> +1.7552435e+01 </wgt>
<wgt id='97'> +1.8059277e+01 </wgt>
<wgt id='98'> +1.6855725e+01 </wgt>
<wgt id='99'> +1.7439943e+01 </wgt>
<wgt id='100'> +1.8585851e+01 </wgt>
<wgt id='101'> +1.7137720e+01 </wgt>
<wgt id='102'> +1.6209527e+01 </wgt>
<wgt id='103'> +1.8103919e+01 </wgt>
<wgt id='104'> +1.7073292e+01 </wgt>
<wgt id='105'> +1.8656302e+01 </wgt>
<wgt id='106'> +1.7761148e+01 </wgt>
<wgt id='107'> +1.8540198e+01 </wgt>
<wgt id='108'> +1.7292299e+01 </wgt>
<wgt id='109'> +1.7526872e+01 </wgt>
<wgt id='110'> +1.7892585e+01 </wgt>
<wgt id='111'> +1.7601983e+01 </wgt>
<wgt id='112'> +1.7535540e+01 </wgt>
<wgt id='113'> +1.7111013e+01 </wgt>
<wgt id='114'> +1.8582203e+01 </wgt>
<wgt id='115'> +1.8267103e+01 </wgt>
<wgt id='116'> +1.6590375e+01 </wgt>
<wgt id='117'> +1.7926716e+01 </wgt>
<wgt id='118'> +1.7048709e+01 </wgt>
<wgt id='119'> +1.7517832e+01 </wgt>
<wgt id='120'> +1.7870387e+01 </wgt>
<wgt id='121'> +1.7701807e+01 </wgt>
<wgt id='122'> +1.7543854e+01 </wgt>
<wgt id='123'> +1.7302859e+01 </wgt>
<wgt id='124'> +1.7449503e+01 </wgt>
<wgt id='125'> +1.7655576e+01 </wgt>
<wgt id='126'> +1.7557233e+01 </wgt>
<wgt id='127'> +1.7569465e+01 </wgt>
<wgt id='128'> +1.6970736e+01 </wgt>
<wgt id='129'> +1.8964415e+01 </wgt>
<wgt id='130'> +1.7138001e+01 </wgt>
<wgt id='131'> +1.8451643e+01 </wgt>
<wgt id='132'> +1.7146583e+01 </wgt>
<wgt id='133'> +1.6853479e+01 </wgt>
<wgt id='134'> +1.6839250e+01 </wgt>
<wgt id='135'> +1.7880760e+01 </wgt>
<wgt id='136'> +1.6879184e+01 </wgt>
<wgt id='137'> +1.6419391e+01 </wgt>
<wgt id='138'> +1.5336529e+01 </wgt>
<wgt id='139'> +1.7530007e+01 </wgt>
<wgt id='140'> +1.8681350e+01 </wgt>
<wgt id='141'> +1.7282979e+01 </wgt>
<wgt id='142'> +1.8370312e+01 </wgt>
<wgt id='143'> +1.7332575e+01 </wgt>
<wgt id='144'> +1.8163471e+01 </wgt>
<wgt id='145'> +1.7511896e+01 </wgt>
</rwgt>
</event>
<event>
 3      1 +1.7556000e+01 1.25000000e+02 7.54677100e-03 1.23506900e-01
       21 -1    0    0  502  501 +0.0000000000e+00 +0.0000000000e+00 +4.2943377684e+02 4.2943377684e+02 0.0000000000e+00 0.0000e+00 1.0000e+00
       21 -1    0    0  501  502 -0.0000000000e+00 -0.0000000000e+00 -9.0962802897e+00 9.0962802897e+00 0.0000000000e+00 0.0000e+00 1.0000e+00
       25  1    1    2    0    0 +0.0000000000e+00 +0.0000000000e+00 +4.2033749655e+02 4.3853005713e+02 1.2500000000e+02 0.0000e+00 0.0000e+00
<mgrwt>
<rscale>  0 0.12500000E+03</rscale>
<asrwt>0</asrwt>
<pdfrwt beam="1">  1       21 0.66066719E-01 0.12500000E+03</pdfrwt>
<pdfrwt beam="2">  1       21 0.13994281E-02 0.12500000E+03</pdfrwt>
<totfact> 0.45586463E+06</totfact>
</mgrwt>
<rwgt>
<wgt id='1'> +1.6918782e+01 </wgt>
<wgt id='2'> +0.0000000e+00 </wgt>
<wgt id='3'> +1.6918782e+01 </wgt>
<wgt id='4'> +1.5899653e+01 </wgt>
<wgt id='5'> +1.6918782e+01 </wgt>
<wgt id='6'> +1.7556000e+01 </wgt>
<wgt id='7'> +0.0000000e+00 </wgt>
<wgt id='8'> +1.7556000e+01 </wgt>
<wgt id='9'> +1.6918782e+01 </wgt>
<wgt id='10'> +1.7556000e+01 </wgt>
<wgt id='11'> +1.7763340e+01 </wgt>
<wgt id='12'> +0.0000000e+00 </wgt>
<wgt id='13'> +1.7763340e+01 </wgt>
<wgt id='14'> +1.7556000e+01 </wgt>
<wgt id='15'> +1.7763340e+01 </wgt>
<wgt id='16'> +1.6918782e+01 </wgt>
<wgt id='17'> +0.0000000e+00 </wgt>
<wgt id='18'> +1.6918782e+01 </wgt>
<wgt id='19'> +1.5899653e+01 </wgt>
<wgt id='20'> +1.6918782e+01 </wgt>
<wgt id='21'> +0.0000000e+00 </wgt>
<wgt id='22'> +1.7556000e+01 </wgt>
<wgt id='23'> +1.6918782e+01 </wgt>
<wgt id='24'> +1.7556000e+01 </wgt>
<wgt id='25'> +1.7763340e+01 </wgt>
<wgt id='26'> +0.0000000e+00 </wgt>
<wgt id='27'> +1.7763340e+01 </wgt>
<wgt id='28'> +1.7556000e+01 </wgt>
<wgt id='29'> +1.7763340e+01 </wgt>
<wgt id='30'> +1.6918782e+01 </wgt>
<wgt id='31'> +0.0000000e+00 </wgt>
<wgt id='32'> +1.6918782e+01 </wgt>
<wgt id='33'> +1.5899653e+01 </wgt>
<wgt id='34'> +1.6918782e+01 </wgt>
<wgt id='35'> +1.7556000e+01 </wgt>
<wgt id='36'> +0.0000000e+00 </wgt>
<wgt id='37'> +1.7556000e+01 </wgt>
<wgt id='38'> +1.6918782e+01 </wgt>
<wgt id='39'> +1.7556000e+01 </wgt>
<wgt id='40'> +1.7763340e+01 </wgt>
<wgt id='41'> +0.0000000e+00 </wgt>
<wgt id='42'> +1.7763340e+01 </wgt>
<wgt id='43'> +1.7556000e+01 </wgt>
<wgt id='44'> +1.7763340e+01 </wgt>
<wgt id='45'> +1.7556000e+01 </wgt>
<wgt id='46'> +1.7602129e+01 </wgt>
<wgt id='47'> +1.7661635e+01 </wgt>
<wgt id='48'> +1.7573076e+01 </wgt>
<wgt id='49'> +1.7720682e+01 </wgt>
<wgt id='50'> +1.8997145e+01 </wgt>
<wgt id='51'> +1.7357683e+01 </wgt>
<wgt id='52'> +1.7624158e+01 </wgt>
<wgt id='53'> +1.7390549e+01 </wgt>
<wgt id='54'> +1.7623548e+01 </wgt>
<wgt id='55'> +1.6596944e+01 </wgt>
<wgt id='56'> +1.6786825e+01 </wgt>
<wgt id='57'> +1.7361941e+01 </wgt>
<wgt id='58'> +1.7889137e+01 </wgt>
<wgt id='59'> +1.7695386e+01 </wgt>
<wgt id='60'> +1.7759182e+01 </wgt>
<wgt id='61'> +1.6841650e+01 </wgt>
<wgt id='62'> +1.7454276e+01 </wgt>
<wgt id='63'> +1.7667829e+01 </wgt>
<wgt id='64'> +1.7573878e+01 </wgt>
<wgt id='65'> +1.8929617e+01 </wgt>
<wgt id='66'> +1.7144567e+01 </wgt>
<wgt id='67'> +1.7557756e+01 </wgt>
<wgt id='68'> +1.8388092e+01 </wgt>
<wgt id='69'> +1.6911043e+01 </wgt>
<wgt id='70'> +1.7325959e+01 </wgt>
<wgt id='71'> +1.7611339e+01 </wgt>
<wgt id='72'> +1.7512858e+01 </wgt>
<wgt id='73'> +1.7643476e+01 </wgt>
<wgt id='74'> +1.8032835e+01 </wgt>
<wgt id='75'> +1.7850404e+01 </wgt>
<wgt id='76'> +1.7194878e+01 </wgt>
<wgt id='77'> +1.7307642e+01 </wgt>
<wgt id='78'> +1.7439870e+01 </wgt>
<wgt id='79'> +1.7350387e+01 </wgt>
<wgt id='80'> +1.7312363e+01 </wgt>
<wgt id='81'> +1.7298012e+01 </wgt>
<wgt id='82'> +1.7742590e+01 </wgt>
<wgt id='83'> +1.7428321e+01 </wgt>
<wgt id='84'> +1.8171450e+01 </wgt>
<wgt id='85'> +1.8165903e+01 </wgt>
<wgt id='86'> +1.7401309e+01 </wgt>
<wgt id='87'> +1.7653471e+01 </wgt>
<wgt id='88'> +1.7293711e+01 </wgt>
<wgt id='89'> +1.8115597e+01 </wgt>
<wgt id='90'> +1.7922965e+01 </wgt>
<wgt id='91'> +1.8179955e+01 </wgt>
<wgt id='92'> +1.6620577e+01 </wgt>
<wgt id='93'> +1.7541588e+01 </wgt>
<wgt id='94'> +1.7523367e+01 </wgt>
<wgt id='95'> +1.7185614e+01 </wgt>
<wgt id='96'> +1.8285125e+01 </wgt>
<wgt id='97'> +1.7651511e+01 </wgt>
<wgt id='98'> +1.6965469e+01 </wgt>
<wgt id='99'> +1.7456254e+01 </wgt>
<wgt id='100'> +1.7549496e+01 </wgt>
<wgt id='101'> +1.8323576e+01 </wgt>
<wgt id='102'> +1.7314548e+01 </wgt>
<wgt id='103'> +1.8629331e+01 </wgt>
<wgt id='104'> +1.7243731e+01 </wgt>
<wgt id='105'> +1.8060468e+01 </wgt>
<wgt id='106'> +1.6685285e+01 </wgt>
<wgt id='107'> +1.7448595e+01 </wgt>
<wgt id='108'> +1.6198877e+01 </wgt>
<wgt id='109'> +1.6980983e+01 </wgt>
<wgt id='110'> +1.7805618e+01 </wgt>
<wgt id='111'> +1.7162573e+01 </wgt>
<wgt id='112'> +1.6950132e+01 </wgt>
<wgt id='113'> +1.6746164e+01 </wgt>
<wgt id='114'> +1.7504554e+01 </wgt>
<wgt id='115'> +1.7068891e+01 </wgt>
<wgt id='116'> +1.7522340e+01 </wgt>
<wgt id='117'> +1.7537481e+01 </wgt>
<wgt id='118'> +1.7984260e+01 </wgt>
<wgt id='119'> +1.7227783e+01 </wgt>
<wgt id='120'> +1.7221408e+01 </wgt>
<wgt id='121'> +1.7480787e+01 </wgt>
<wgt id='122'> +1.7445633e+01 </wgt>
<wgt id='123'> +1.7512559e+01 </wgt>
<wgt id='124'> +1.8363086e+01 </wgt>
<wgt id='125'> +1.8519397e+01 </wgt>
<wgt id='126'> +1.7970134e+01 </wgt>
<wgt id='127'> +1.7971551e+01 </wgt>
<wgt id='128'> +1.6314694e+01 </wgt>
<wgt id='129'> +1.9035484e+01 </wgt>
<wgt id='130'> +1.7091296e+01 </wgt>
<wgt id='131'> +1.8336034e+01 </wgt>
<wgt id='132'> +1.7800773e+01 </wgt>
<wgt id='133'> +1.7618662e+01 </wgt>
<wgt id='134'> +1.6977643e+01 </wgt>
<wgt id='135'> +1.7933176e+01 </wgt>
<wgt id='136'> +1.7466949e+01 </wgt>
<wgt id='137'> +1.6652346e+01 </wgt>
<wgt id='138'> +1.6192481e+01 </wgt>
<wgt id='139'> +1.8033141e+01 </wgt>
<wgt id='140'> +1.8238884e+01 </wgt>
<wgt id='141'> +1.7349108e+01 </wgt>
<wgt id='142'> +1.7606413e+01 </wgt>
<wgt id='143'> +1.7651030e+01 </wgt>
<wgt id='144'> +1.7630399e+01 </wgt>
<wgt id='145'> +1.7433455e+01 </wgt>
</rwgt>
</event>
<event>
 3      1 +1.7556000e+01 1.25000000e+02 7.54677100e-03 1.23506900e-01
       21 -1    0    0  502  501 +0.0000000000e+00 +0.0000000000e+00 +5.6649086987e+01 5.6649086987e+01 0.0000000000e+00 0.0000e+00 -1.0000e+00
       21 -1    0    0  501  502 -0.0000000000e+00 -0.0000000000e+00 -6.8955215482e+01 6.8955215482e+01 0.0000000000e+00 0.0000e+00 -1.0000e+00
       25  1    1    2    0    0 +0.0000000000e+00 +0.0000000000e+00 -1.2306128495e+01 1.2560430247e+02 1.2500000000e+02 0.0000e+00 0.0000e+00
<mgrwt>
<rscale>  0 0.12500000E+03</rscale>
<asrwt>0</asrwt>
<pdfrwt beam="1">  1       21 0.87152441E-02 0.12500000E+03</pdfrwt>
<pdfrwt beam="2">  1       21 0.10608495E-01 0.12500000E+03</pdfrwt>
<totfact> 0.73960843E+06</totfact>
</mgrwt>
<rwgt>
<wgt id='1'> +1.6646723e+01 </wgt>
<wgt id='2'> +0.0000000e+00 </wgt>
<wgt id='3'> +1.6646723e+01 </wgt>
<wgt id='4'> +1.5354937e+01 </wgt>
<wgt id='5'> +1.6646723e+01 </wgt>
<wgt id='6'> +1.7556000e+01 </wgt>
<wgt id='7'> +0.0000000e+00 </wgt>
<wgt id='8'> +1.7556000e+01 </wgt>
<wgt id='9'> +1.6646723e+01 </wgt>
<wgt id='10'> +1.7556000e+01 </wgt>
<wgt id='11'> +1.8019841e+01 </wgt>
<wgt id='12'> +0.0000000e+00 </wgt>
<wgt id='13'> +1.8019841e+01 </wgt>
<wgt id='14'> +1.7556000e+01 </wgt>
<wgt id='15'> +1.8019841e+01 </wgt>
<wgt id='16'> +1.6646723e+01 </wgt>
<wgt id='17'> +0.0000000e+00 </wgt>
<wgt id='18'> +1.6646723e+01 </wgt>
<wgt id='19'> +1.5354937e+01 </wgt>
<wgt id='20'> +1.6646723e+01 </wgt>
<wgt id='21'> +0.0000000e+00 </wgt>
<wgt id='22'> +1.7556000e+01 </wgt>
<wgt id='23'> +1.6646723e+01 </wgt>
<wgt id='24'> +1.7556000e+01 </wgt>
<wgt id='25'> +1.8019841e+01 </wgt>
<wgt id='26'> +0.0000000e+00 </wgt>
<wgt id='27'> +1.8019841e+01 </wgt>
<wgt id='28'> +1.7556000e+01 </wgt>
<wgt id='29'> +1.8019841e+01 </wgt>
<wgt id='30'> +1.6646723e+01 </wgt>
<wgt id='31'> +0.0000000e+00 </wgt>
<wgt id='32'> +1.6646723e+01 </wgt>
<wgt id='33'> +1.5354937e+01 </wgt>
<wgt id='34'> +1.6646723e+01 </wgt>
<wgt id='35'> +1.7556000e+01 </wgt>
<wgt id='36'> +0.0000000e+00 </wgt>
<wgt id='37'> +1.7556000e+01 </wgt>
<wgt id='38'> +1.6646723e+01 </wgt>
<wgt id='39'> +1.7556000e+01 </wgt>
<wgt id='40'> +1.8019841e+01 </wgt>
<wgt id='41'> +0.0000000e+00 </wgt>
<wgt id='42'> +1.8019841e+01 </wgt>
<wgt id='43'> +1.7556000e+01 </wgt>
<wgt id='44'> +1.8019841e+01 </wgt>
<wgt id='45'> +1.7556000e+01 </wgt>
<wgt id='46'> +1.6960300e+01 </wgt>
<wgt id='47'> +1.7487595e+01 </wgt>
<wgt id='48'> +1.7129774e+01 </wgt>
<wgt id='49'> +1.7558252e+01 </wgt>
<wgt id='50'> +1.7834741e+01 </wgt>
<wgt id='51'> +1.7271317e+01 </wgt>
<wgt id='52'> +1.7394093e+01 </wgt>
<wgt id='53'> +1.8023988e+01 </wgt>
<wgt id='54'> +1.7641527e+01 </wgt>
<wgt id='55'> +1.6650337e+01 </wgt>
<wgt id='56'> +1.7366378e+01 </wgt>
<wgt id='57'> +1.7418734e+01 </wgt>
<wgt id='58'> +1.8368850e+01 </wgt>
<wgt id='59'> +1.7012411e+01 </wgt>
<wgt id='60'> +1.6789825e+01 </wgt>
<wgt id='61'> +1.8147875e+01 </wgt>
<wgt id='62'> +1.7206249e+01 </wgt>
<wgt id='63'> +1.7597684e+01 </wgt>
<wgt id='64'> +1.8033221e+01 </wgt>
<wgt id='65'> +1.9311398e+01 </wgt>
<wgt id='66'> +1.7101804e+01 </wgt>
<wgt id='67'> +1.7685571e+01 </wgt>
<wgt id='68'> +1.7917736e+01 </wgt>
<wgt id='69'> +1.6249550e+01 </wgt>
<wgt id='70'> +1.7551570e+01 </wgt>
<wgt id='71'> +1.7852208e+01 </wgt>
<wgt id='72'> +1.8727580e+01 </wgt>
<wgt id='73'> +1.7749928e+01 </wgt>
<wgt id='74'> +1.7327441e+01 </wgt>
<wgt id='75'> +1.7587989e+01 </wgt>
<wgt id='76'> +1.7477919e+01 </wgt>
<wgt id='77'> +1.6765964e+01 </wgt>
<wgt id='78'> +1.8121490e+01 </wgt>
<wgt id='79'> +1.6781774e+01 </wgt>
<wgt id='80'> +1.7667989e+01 </wgt>
<wgt id='81'> +1.7647559e+01 </wgt>
<wgt id='82'> +1.8139502e+01 </wgt>
<wgt id='83'> +1.7251734e+01 </wgt>
<wgt id='84'> +1.8193889e+01 </wgt>
<wgt id='85'> +1.8032573e+01 </wgt>
<wgt id='86'> +1.7007654e+01 </wgt>
<wgt id='87'> +1.7346606e+01 </wgt>
<wgt id='88'> +1.7338638e+01 </wgt>
<wgt id='89'> +1.7559709e+01 </wgt>
<wgt id='90'> +1.7596279e+01 </wgt>
<wgt id='91'> +1.8454459e+01 </wgt>
<wgt id='92'> +1.8047153e+01 </wgt>
<wgt id='93'> +1.6989017e+01 </wgt>
<wgt id='94'> +1.7975744e+01 </wgt>
<wgt id='95'> +1.7520680e+01 </wgt>
<wgt id='96'> +1.7537240e+01 </wgt>
<wgt id='97'> +1.8063998e+01 </wgt>
<wgt id='98'> +1.6858905e+01 </wgt>
<wgt id='99'> +1.7436267e+01 </wgt>
<wgt id='100'> +1.8596519e+01 </wgt>
<wgt id='101'> +1.7124384e+01 </wgt>
<wgt id='102'> +1.6198548e+01 </wgt>
<wgt id='103'> +1.8093358e+01 </wgt>
<wgt id='104'> +1.7070737e+01 </wgt>
<wgt id='105'> +1.8666554e+01 </wgt>
<wgt id='106'> +1.7780542e+01 </wgt>
<wgt id='107'> +1.8554365e+01 </wgt>
<wgt id='108'> +1.7310170e+01 </wgt>
<wgt id='109'> +1.7536493e+01 </wgt>
<wgt id='110'> +1.7893081e+01 </wgt>
<wgt id='111'> +1.7610557e+01 </wgt>
<wgt id='112'> +1.7542927e+01 </wgt>
<wgt id='113'> +1.7118594e+01 </wgt>
<wgt id='114'> +1.8595406e+01 </wgt>
<wgt id='115'> +1.8275888e+01 </wgt>
<wgt id='116'> +1.6577749e+01 </wgt>
<wgt id='117'> +1.7927968e+01 </wgt>
<wgt id='118'> +1.7035695e+01 </wgt>
<wgt id='119'> +1.7525017e+01 </wgt>
<wgt id='120'> +1.7871601e+01 </wgt>
<wgt id='121'> +1.7707501e+01 </wgt>
<wgt id='122'> +1.7546062e+01 </wgt>
<wgt id='123'> +1.7297303e+01 </wgt>
<wgt id='124'> +1.7438706e+01 </wgt>
<wgt id='125'> +1.7645578e+01 </wgt>
<wgt id='126'> +1.7541996e+01 </wgt>
<wgt id='127'> +1.7561924e+01 </wgt>
<wgt id='128'> +1.6978308e+01 </wgt>
<wgt id='129'> +1.8962360e+01 </wgt>
<wgt id='130'> +1.7135414e+01 </wgt>
<wgt id='131'> +1.8449436e+01 </wgt>
<wgt id='132'> +1.7147262e+01 </wgt>
<wgt id='133'> +1.6844808e+01 </wgt>
<wgt id='134'> +1.6842849e+01 </wgt>
<wgt id='135'> +1.7878611e+01 </wgt>
<wgt id='136'> +1.6881050e+01 </wgt>
<wgt id='137'> +1.6417364e+01 </wgt>
<wgt id='138'> +1.5324997e+01 </wgt>
<wgt id='139'> +1.7522506e+01 </wgt>
<wgt id='140'> +1.8683601e+01 </wgt>
<wgt id='141'> +1.7283151e+01 </wgt>
<wgt id='142'> +1.8374368e+01 </wgt>
<wgt id='143'> +1.7333451e+01 </wgt>
<wgt id='144'> +1.8172478e+01 </wgt>
<wgt id='145'> +1.7513876e+01 </wgt>
</rwgt>
</event>
<event>
 3      1 +1.7556000e+01 1.25000000e+02 7.54677100e-03 1.23506900e-01
       21 -1    0    0  502  501 +0.0000000000e+00 +0.0000000000e+00 +8.2055473332e+02 8.2055473332e+02 0.0000000000e+00 0.0000e+00 -1.0000e+00
       21 -1    0    0  501  502 -0.0000000000e+00 -0.0000000000e+00 -4.7604990153e+00 4.7604990153e+00 0.0000000000e+00 0.0000e+00 -1.0000e+00
       25  1    1    2    0    0 +0.0000000000e+00 +0.0000000000e+00 +8.1579423431e+02 8.2531523234e+02 1.2500000000e+02 0.0000e+00 0.0000e+00
<mgrwt>
<rscale>  0 0.12500000E+03</rscale>
<asrwt>0</asrwt>
<pdfrwt beam="1">  1       21 0.12623908E+00 0.12500000E+03</pdfrwt>
<pdfrwt beam="2">  1       21 0.73238512E-03 0.12500000E+03</pdfrwt>
<totfact> 0.28541089E+06</totfact>
</mgrwt>
<rwgt>
<wgt id='1'> +1.7230068e+01 </wgt>
<wgt id='2'> +0.0000000e+00 </wgt>
<wgt id='3'> +1.7230068e+01 </wgt>
<wgt id='4'> +1.6517351e+01 </wgt>
<wgt id='5'> +1.7230068e+01 </wgt>
<wgt id='6'> +1.7556000e+01 </wgt>
<wgt id='7'> +0.0000000e+00 </wgt>
<wgt id='8'> +1.7556000e+01 </wgt>
<wgt id='9'> +1.7230068e+01 </wgt>
<wgt id='10'> +1.7556000e+01 </wgt>
<wgt id='11'> +1.7468297e+01 </wgt>
<wgt id='12'> +0.0000000e+00 </wgt>
<wgt id='13'> +1.7468297e+01 </wgt>
<wgt id='14'> +1.7556000e+01 </wgt>
<wgt id='15'> +1.7468297e+01 </wgt>
<wgt id='16'> +1.7230068e+01 </wgt>
<wgt id='17'> +0.0000000e+00 </wgt>
<wgt id='18'> +1.7230068e+01 </wgt>
<wgt id='19'> +1.6517351e+01 </wgt>
<wgt id='20'> +1.7230068e+01 </wgt>
<wgt id='21'> +0.0000000e+00 </wgt>
<wgt id='22'> +1.7556000e+01 </wgt>
<wgt id='23'> +1.7230068e+01 </wgt>
<wgt id='24'> +1.7556000e+01 </wgt>
<wgt id='25'> +1.7468297e+01 </wgt>
<wgt id='26'> +0.0000000e+00 </wgt>
<wgt id='27'> +1.7468297e+01 </wgt>
<wgt id='28'> +1.7556000e+01 </wgt>
<wgt id='29'> +1.7468297e+01 </wgt>
<wgt id='30'> +1.7230068e+01 </wgt>
<wgt id='31'> +0.0000000e+00 </wgt>
<wgt id='32'> +1.7230068e+01 </wgt>
<wgt id='33'> +1.6517351e+01 </wgt>
<wgt id='34'> +1.7230068e+01 </wgt>
<wgt id='35'> +1.7556000e+01 </wgt>
<wgt id='36'> +0.0000000e+00 </wgt>
<wgt id='37'> +1.7556000e+01 </wgt>
<wgt id='38'> +1.7230068e+01 </wgt>
<wgt id='39'> +1.7556000e+01 </wgt>
<wgt id='40'> +1.7468297e+01 </wgt>
<wgt id='41'> +0.0000000e+00 </wgt>
<wgt id='42'> +1.7468297e+01 </wgt>
<wgt id='43'> +1.7556000e+01 </wgt>
<wgt id='44'> +1.7468297e+01 </wgt>
<wgt id='45'> +1.7556000e+01 </wgt>
<wgt id='46'> +1.8061243e+01 </wgt>
<wgt id='47'> +1.7560523e+01 </wgt>
<wgt id='48'> +1.7688374e+01 </wgt>
<wgt id='49'> +1.7360613e+01 </wgt>
<wgt id='50'> +1.9537044e+01 </wgt>
<wgt id='51'> +1.7146718e+01 </wgt>
<wgt id='52'> +1.7596331e+01 </wgt>
<wgt id='53'> +1.6950683e+01 </wgt>
<wgt id='54'> +1.7972032e+01 </wgt>
<wgt id='55'> +1.7960865e+01 </wgt>
<wgt id='56'> +1.6528544e+01 </wgt>
<wgt id='57'> +1.8039779e+01 </wgt>
<wgt id='58'> +1.7072667e+01 </wgt>
<wgt id='59'> +1.8783288e+01 </wgt>
<wgt id='60'> +1.8507623e+01 </wgt>
<wgt id='61'> +1.5184642e+01 </wgt>
<wgt id='62'> +1.7233002e+01 </wgt>
<wgt id='63'> +1.7900876e+01 </wgt>
<wgt id='64'> +1.7504795e+01 </wgt>
<wgt id='65'> +1.7667820e+01 </wgt>
<wgt id='66'> +1.7270994e+01 </wgt>
<wgt id='67'> +1.7410412e+01 </wgt>
<wgt id='68'> +1.9074926e+01 </wgt>
<wgt id='69'> +1.7634299e+01 </wgt>
<wgt id='70'> +1.7502887e+01 </wgt>
<wgt id='71'> +1.7126734e+01 </wgt>
<wgt id='72'> +1.7008458e+01 </wgt>
<wgt id='73'> +1.7092079e+01 </wgt>
<wgt id='74'> +1.8848654e+01 </wgt>
<wgt id='75'> +1.8174993e+01 </wgt>
<wgt id='76'> +1.7550624e+01 </wgt>
<wgt id='77'> +1.7569449e+01 </wgt>
<wgt id='78'> +1.6356375e+01 </wgt>
<wgt id='79'> +1.8159703e+01 </wgt>
<wgt id='80'> +1.6665020e+01 </wgt>
<wgt id='81'> +1.7293753e+01 </wgt>
<wgt id='82'> +1.6872085e+01 </wgt>
<wgt id='83'> +1.7244009e+01 </wgt>
<wgt id='84'> +1.7485049e+01 </wgt>
<wgt id='85'> +1.7350589e+01 </wgt>
<wgt id='86'> +1.7777795e+01 </wgt>
<wgt id='87'> +1.7772221e+01 </wgt>
<wgt id='88'> +1.6920836e+01 </wgt>
<wgt id='89'> +1.7621022e+01 </wgt>
<wgt id='90'> +1.7835196e+01 </wgt>
<wgt id='91'> +1.7012571e+01 </wgt>
<wgt id='92'> +1.6339506e+01 </wgt>
<wgt id='93'> +1.7897035e+01 </wgt>
<wgt id='94'> +1.6900192e+01 </wgt>
<wgt id='95'> +1.7837529e+01 </wgt>
<wgt id='96'> +1.8212405e+01 </wgt>
<wgt id='97'> +1.6934454e+01 </wgt>
<wgt id='98'> +1.7667814e+01 </wgt>
<wgt id='99'> +1.6732114e+01 </wgt>
<wgt id='100'> +1.5791780e+01 </wgt>
<wgt id='101'> +1.9541240e+01 </wgt>
<wgt id='102'> +1.8756258e+01 </wgt>
<wgt id='103'> +1.8202019e+01 </wgt>
<wgt id='104'> +1.7608147e+01 </wgt>
<wgt id='105'> +1.7781318e+01 </wgt>
<wgt id='106'> +1.6540609e+01 </wgt>
<wgt id='107'> +1.6705898e+01 </wgt>
<wgt id='108'> +1.5958631e+01 </wgt>
<wgt id='109'> +1.7146040e+01 </wgt>
<wgt id='110'> +1.7393338e+01 </wgt>
<wgt id='111'> +1.7110331e+01 </wgt>
<wgt id='112'> +1.7138035e+01 </wgt>
<wgt id='113'> +1.7227139e+01 </wgt>
<wgt id='114'> +1.7368423e+01 </wgt>
<wgt id='115'> +1.6109182e+01 </wgt>
<wgt id='116'> +1.8445123e+01 </wgt>
<wgt id='117'> +1.7107633e+01 </wgt>
<wgt id='118'> +1.8554171e+01 </wgt>
<wgt id='119'> +1.7829478e+01 </wgt>
<wgt id='120'> +1.7160404e+01 </wgt>
<wgt id='121'> +1.7701044e+01 </wgt>
<wgt id='122'> +1.7448744e+01 </wgt>
<wgt id='123'> +1.7353745e+01 </wgt>
<wgt id='124'> +1.9179629e+01 </wgt>
<wgt id='125'> +1.9784162e+01 </wgt>
<wgt id='126'> +1.7733186e+01 </wgt>
<wgt id='127'> +1.7798110e+01 </wgt>
<wgt id='128'> +1.6093797e+01 </wgt>
<wgt id='129'> +1.8542775e+01 </wgt>
<wgt id='130'> +1.6638434e+01 </wgt>
<wgt id='131'> +1.7457749e+01 </wgt>
<wgt id='132'> +1.8955517e+01 </wgt>
<wgt id='133'> +1.8551030e+01 </wgt>
<wgt id='134'> +1.7676629e+01 </wgt>
<wgt id='135'> +1.7585749e+01 </wgt>
<wgt id='136'> +1.9262691e+01 </wgt>
<wgt id='137'> +1.7176970e+01 </wgt>
<wgt id='138'> +1.7195048e+01 </wgt>
<wgt id='139'> +1.8320310e+01 </wgt>
<wgt id='140'> +1.7515469e+01 </wgt>
<wgt id='141'> +1.7933188e+01 </wgt>
<wgt id='142'> +1.5781553e+01 </wgt>
<wgt id='143'> +1.8078582e+01 </wgt>
<wgt id='144'> +1.6927570e+01 </wgt>
<wgt id='145'> +1.6947060e+01 </wgt>
</rwgt>
</event>
<event>
 3      1 +1.7556000e+01 1.25000000e+02 7.54677100e-03 1.23506900e-01
       21 -1    0    0  502  501 +0.0000000000e+00 +0.0000000000e+00 +1.4097334432e+02 1.4097334432e+02 0.0000000000e+00 0.0000e+00 -1.0000e+00
       21 -1    0    0  501  502 -0.0000000000e+00 -0.0000000000e+00 -2.7709139050e+01 2.7709139050e+01 0.0000000000e+00 0.0000e+00 -1.0000e+00
       25  1    1    2    0    0 +0.0000000000e+00 +0.0000000000e+00 +1.1326420527e+02 1.6868248337e+02 1.2500000000e+02 0.0000e+00 0.0000e+00
<mgrwt>
<rscale>  0 0.12500000E+03</rscale>
<asrwt>0</asrwt>
<pdfrwt beam="1">  1       21 0.21688206E-01 0.12500000E+03</pdfrwt>
<pdfrwt beam="2">  1       21 0.42629445E-02 0.12500000E+03</pdfrwt>
<totfact> 0.68473845E+06</totfact>
</mgrwt>
<rwgt>
<wgt id='1'> +1.6692192e+01 </wgt>
<wgt id='2'> +0.0000000e+00 </wgt>
<wgt id='3'> +1.6692192e+01 </wgt>
<wgt id='4'> +1.5446327e+01 </wgt>
<wgt id='5'> +1.6692192e+01 </wgt>
<wgt id='6'> +1.7556000e+01 </wgt>
<wgt id='7'> +0.0000000e+00 </wgt>
<wgt id='8'> +1.7556000e+01 </wgt>
<wgt id='9'> +1.6692192e+01 </wgt>
<wgt id='10'> +1.7556000e+01 </wgt>
<wgt id='11'> +1.7977205e+01 </wgt>
<wgt id='12'> +0.0000000e+00 </wgt>
<wgt id='13'> +1.7977205e+01 </wgt>
<wgt id='14'> +1.7556000e+01 </wgt>
<wgt id='15'> +1.7977205e+01 </wgt>
<wgt id='16'> +1.6692192e+01 </wgt>
<wgt id='17'> +0.0000000e+00 </wgt>
<wgt id='18'> +1.6692192e+01 </wgt>
<wgt id='19'> +1.5446327e+01 </wgt>
<wgt id='20'> +1.6692192e+01 </wgt>
<wgt id='21'> +0.0000000e+00 </wgt>
<wgt id='22'> +1.7556000e+01 </wgt>
<wgt id='23'> +1.6692192e+01 </wgt>
<wgt id='24'> +1.7556000e+01 </wgt>
<wgt id='25'> +1.7977205e+01 </wgt>
<wgt id='26'> +0.0000000e+00 </wgt>
<wgt id='27'> +1.7977205e+01 </wgt>
<wgt id='28'> +1.7556000e+01 </wgt>
<wgt id='29'> +1.7977205e+01 </wgt>
<wgt id='30'> +1.6692192e+01 </wgt>
<wgt id='31'> +0.0000000e+00 </wgt>
<wgt id='32'> +1.6692192e+01 </wgt>
<wgt id='33'> +1.5446327e+01 </wgt>
<wgt id='34'> +1.6692192e+01 </wgt>
<wgt id='35'> +1.7556000e+01 </wgt>
<wgt id='36'> +0.0000000e+00 </wgt>
<wgt id='37'> +1.7556000e+01 </wgt>
<wgt id='38'> +1.6692192e+01 </wgt>
<wgt id='39'> +1.7556000e+01 </wgt>
<wgt id='40'> +1.7977205e+01 </wgt>
<wgt id='41'> +0.0000000e+00 </wgt>
<wgt id='42'> +1.7977205e+01 </wgt>
<wgt id='43'> +1.7556000e+01 </wgt>
<wgt id='44'> +1.7977205e+01 </wgt>
<wgt id='45'> +1.7556000e+01 </wgt>
<wgt id='46'> +1.7058168e+01 </wgt>
<wgt id='47'> +1.7534730e+01 </wgt>
<wgt id='48'> +1.7212411e+01 </wgt>
<wgt id='49'> +1.7610369e+01 </wgt>
<wgt id='50'> +1.8044660e+01 </wgt>
<wgt id='51'> +1.7293649e+01 </wgt>
<wgt id='52'> +1.7407277e+01 </wgt>
<wgt id='53'> +1.7944309e+01 </wgt>
<wgt id='54'> +1.7638244e+01 </wgt>
<wgt id='55'> +1.6545273e+01 </wgt>
<wgt id='56'> +1.7288384e+01 </wgt>
<wgt id='57'> +1.7350042e+01 </wgt>
<wgt id='58'> +1.8311813e+01 </wgt>
<wgt id='59'> +1.7052641e+01 </wgt>
<wgt id='60'> +1.6912800e+01 </wgt>
<wgt id='61'> +1.8048371e+01 </wgt>
<wgt id='62'> +1.7262195e+01 </wgt>
<wgt id='63'> +1.7616803e+01 </wgt>
<wgt id='64'> +1.7979855e+01 </wgt>
<wgt id='65'> +1.9304840e+01 </wgt>
<wgt id='66'> +1.7105330e+01 </wgt>
<wgt id='67'> +1.7664960e+01 </wgt>
<wgt id='68'> +1.7981312e+01 </wgt>
<wgt id='69'> +1.6355454e+01 </wgt>
<wgt id='70'> +1.7505562e+01 </wgt>
<wgt id='71'> +1.7797584e+01 </wgt>
<wgt id='72'> +1.8468107e+01 </wgt>
<wgt id='73'> +1.7751909e+01 </wgt>
<wgt id='74'> +1.7433886e+01 </wgt>
<wgt id='75'> +1.7639818e+01 </wgt>
<wgt id='76'> +1.7376790e+01 </wgt>
<wgt id='77'> +1.6837505e+01 </wgt>
<wgt id='78'> +1.8055570e+01 </wgt>
<wgt id='79'> +1.6849328e+01 </wgt>
<wgt id='80'> +1.7615448e+01 </wgt>
<wgt id='81'> +1.7581213e+01 </wgt>
<wgt id='82'> +1.8131970e+01 </wgt>
<wgt id='83'> +1.7302166e+01 </wgt>
<wgt id='84'> +1.8230095e+01 </wgt>
<wgt id='85'> +1.8122948e+01 </wgt>
<wgt id='86'> +1.7074858e+01 </wgt>
<wgt id='87'> +1.7395754e+01 </wgt>
<wgt id='88'> +1.7353308e+01 </wgt>
<wgt id='89'> +1.7673244e+01 </wgt>
<wgt id='90'> +1.7631193e+01 </wgt>
<wgt id='91'> +1.8459352e+01 </wgt>
<wgt id='92'> +1.7700658e+01 </wgt>
<wgt id='93'> +1.7082559e+01 </wgt>
<wgt id='94'> +1.7898441e+01 </wgt>
<wgt id='95'> +1.7401212e+01 </wgt>
<wgt id='96'> +1.7708867e+01 </wgt>
<wgt id='97'> +1.8010407e+01 </wgt>
<wgt id='98'> +1.6830175e+01 </wgt>
<wgt id='99'> +1.7472800e+01 </wgt>
<wgt id='100'> +1.8469035e+01 </wgt>
<wgt id='101'> +1.7285753e+01 </wgt>
<wgt id='102'> +1.6332908e+01 </wgt>
<wgt id='103'> +1.8213556e+01 </wgt>
<wgt id='104'> +1.7099589e+01 </wgt>
<wgt id='105'> +1.8551498e+01 </wgt>
<wgt id='106'> +1.7560609e+01 </wgt>
<wgt id='107'> +1.8387018e+01 </wgt>
<wgt id='108'> +1.7104858e+01 </wgt>
<wgt id='109'> +1.7424047e+01 </wgt>
<wgt id='110'> +1.7887009e+01 </wgt>
<wgt id='111'> +1.7514322e+01 </wgt>
<wgt id='112'> +1.7452780e+01 </wgt>
<wgt id='113'> +1.7030401e+01 </wgt>
<wgt id='114'> +1.8428203e+01 </wgt>
<wgt id='115'> +1.8148882e+01 </wgt>
<wgt id='116'> +1.6723516e+01 </wgt>
<wgt id='117'> +1.7902181e+01 </wgt>
<wgt id='118'> +1.7187312e+01 </wgt>
<wgt id='119'> +1.7444314e+01 </wgt>
<wgt id='120'> +1.7831599e+01 </wgt>
<wgt id='121'> +1.7643894e+01 </wgt>
<wgt id='122'> +1.7520126e+01 </wgt>
<wgt id='123'> +1.7356586e+01 </wgt>
<wgt id='124'> +1.7568961e+01 </wgt>
<wgt id='125'> +1.7764384e+01 </wgt>
<wgt id='126'> +1.7683227e+01 </wgt>
<wgt id='127'> +1.7647502e+01 </wgt>
<wgt id='128'> +1.6885524e+01 </wgt>
<wgt id='129'> +1.8989516e+01 </wgt>
<wgt id='130'> +1.7162349e+01 </wgt>
<wgt id='131'> +1.8471599e+01 </wgt>
<wgt id='132'> +1.7158819e+01 </wgt>
<wgt id='133'> +1.6948093e+01 </wgt>
<wgt id='134'> +1.6810849e+01 </wgt>
<wgt id='135'> +1.7903136e+01 </wgt>
<wgt id='136'> +1.6873467e+01 </wgt>
<wgt id='137'> +1.6442008e+01 </wgt>
<wgt id='138'> +1.5457274e+01 </wgt>
<wgt id='139'> +1.7608802e+01 </wgt>
<wgt id='140'> +1.8651364e+01 </wgt>
<wgt id='141'> +1.7281822e+01 </wgt>
<wgt id='142'> +1.8319076e+01 </wgt>
<wgt id='143'> +1.7336120e+01 </wgt>
<wgt id='144'> +1.8076161e+01 </wgt>
<wgt id='145'> +1.7494977e+01 </wgt>
</rwgt>
</event>
<event>
 3      1 +1.7556000e+01 1.25000000e+02 7.54677100e-03 1.23506900e-01
       21 -1    0    0  502  501 +0.0000000000e+00 +0.0000000000e+00 +1.4322910990e+02 1.4322910990e+02 0.0000000000e+00 0.0000e+00 -1.0000e+00
       21 -1    0    0  501  502 -0.0000000000e+00 -0.0000000000e+00 -2.7272738083e+01 2.7272738083e+01 0.0000000000e+00 0.0000e+00 -1.0000e+00
       25  1    1    2    0    0 +0.0000000000e+00 +0.0000000000e+00 +1.1595637181e+02 1.7050184798e+02 1.2500000000e+02 0.0000e+00 0.0000e+00
<mgrwt>
<rscale>  0 0.12500000E+03</rscale>
<asrwt>0</asrwt>
<pdfrwt beam="1">  1       21 0.22035247E-01 0.12500000E+03</pdfrwt>
<pdfrwt beam="2">  1       21 0.41958059E-02 0.12500000E+03</pdfrwt>
<totfact> 0.68258194E+06</totfact>
</mgrwt>
<rwgt>
<wgt id='1'> +1.6693732e+01 </wgt>
<wgt id='2'> +0.0000000e+00 </wgt>
<wgt id='3'> +1.6693732e+01 </wgt>
<wgt id='4'> +1.5449459e+01 </wgt>
<wgt id='5'> +1.6693732e+01 </wgt>
<wgt id='6'> +1.7556000e+01 </wgt>
<wgt id='7'> +0.0000000e+00 </wgt>
<wgt id='8'> +1.7556000e+01 </wgt>
<wgt id='9'> +1.6693732e+01 </wgt>
<wgt id='10'> +1.7556000e+01 </wgt>
<wgt id='11'> +1.7975789e+01 </wgt>
<wgt id='12'> +0.0000000e+00 </wgt>
<wgt id='13'> +1.7975789e+01 </wgt>
<wgt id='14'> +1.7556000e+01 </wgt>
<wgt id='15'> +1.7975789e+01 </wgt>
<wgt id='16'> +1.6693732e+01 </wgt>
<wgt id='17'> +0.0000000e+00 </wgt>
<wgt id='18'> +1.6693732e+01 </wgt>
<wgt id='19'> +1.5449459e+01 </wgt>
<wgt id='20'> +1.6693732e+01 </wgt>
<wgt id='21'> +0.0000000e+00 </wgt>
<wgt id='22'> +1.7556000e+01 </wgt>
<wgt id='23'> +1.6693732e+01 </wgt>
<wgt id='24'> +1.7556000e+01 </wgt>
<wgt id='25'> +1.7975789e+01 </wgt>
<wgt id='26'> +0.0000000e+00 </wgt>
<wgt id='27'> +1.7975789e+01 </wgt>
<wgt id='28'> +1.7556000e+01 </wgt>
<wgt id='29'> +1.7975789e+01 </wgt>
<wgt id='30'> +1.6693732e+01 </wgt>
<wgt id='31'> +0.0000000e+00 </wgt>
<wgt id='32'> +1.6693732e+01 </wgt>
<wgt id='33'> +1.5449459e+01 </wgt>
<wgt id='34'> +1.6693732e+01 </wgt>
<wgt id='35'> +1.7556000e+01 </wgt>
<wgt id='36'> +0.0000000e+00 </wgt>
<wgt id='37'> +1.7556000e+01 </wgt>
<wgt id='38'> +1.6693732e+01 </wgt>
<wgt id='39'> +1.7556000e+01 </wgt>
<wgt id='40'> +1.7975789e+01 </wgt>
<wgt id='41'> +0.0000000e+00 </wgt>
<wgt id='42'> +1.7975789e+01 </wgt>
<wgt id='43'> +1.7556000e+01 </wgt>
<wgt id='44'> +1.7975789e+01 </wgt>
<wgt id='45'> +1.7556000e+01 </wgt>
<wgt id='46'> +1.7062329e+01 </wgt>
<wgt id='47'> +1.7536480e+01 </wgt>
<wgt id='48'> +1.7215805e+01 </wgt>
<wgt id='49'> +1.7612469e+01 </wgt>
<wgt id='50'> +1.8052970e+01 </wgt>
<wgt id='51'> +1.7294616e+01 </wgt>
<wgt id='52'> +1.7408328e+01 </wgt>
<wgt id='53'> +1.7940632e+01 </wgt>
<wgt id='54'> +1.7637927e+01 </wgt>
<wgt id='55'> +1.6541691e+01 </wgt>
<wgt id='56'> +1.7285104e+01 </wgt>
<wgt id='57'> +1.7347597e+01 </wgt>
<wgt id='58'> +1.8309385e+01 </wgt>
<wgt id='59'> +1.7054981e+01 </wgt>
<wgt id='60'> +1.6918498e+01 </wgt>
<wgt id='61'> +1.8043651e+01 </wgt>
<wgt id='62'> +1.7264511e+01 </wgt>
<wgt id='63'> +1.7617545e+01 </wgt>
<wgt id='64'> +1.7977286e+01 </wgt>
<wgt id='65'> +1.9303984e+01 </wgt>
<wgt id='66'> +1.7105507e+01 </wgt>
<wgt id='67'> +1.7664100e+01 </wgt>
<wgt id='68'> +1.7983838e+01 </wgt>
<wgt id='69'> +1.6359821e+01 </wgt>
<wgt id='70'> +1.7503698e+01 </wgt>
<wgt id='71'> +1.7795543e+01 </wgt>
<wgt id='72'> +1.8457846e+01 </wgt>
<wgt id='73'> +1.7752002e+01 </wgt>
<wgt id='74'> +1.7438361e+01 </wgt>
<wgt id='75'> +1.7641926e+01 </wgt>
<wgt id='76'> +1.7373077e+01 </wgt>
<wgt id='77'> +1.6840800e+01 </wgt>
<wgt id='78'> +1.8052459e+01 </wgt>
<wgt id='79'> +1.6852471e+01 </wgt>
<wgt id='80'> +1.7613322e+01 </wgt>
<wgt id='81'> +1.7578521e+01 </wgt>
<wgt id='82'> +1.8131263e+01 </wgt>
<wgt id='83'> +1.7304049e+01 </wgt>
<wgt id='84'> +1.8231120e+01 </wgt>
<wgt id='85'> +1.8126164e+01 </wgt>
<wgt id='86'> +1.7077630e+01 </wgt>
<wgt id='87'> +1.7397863e+01 </wgt>
<wgt id='88'> +1.7353693e+01 </wgt>
<wgt id='89'> +1.7678016e+01 </wgt>
<wgt id='90'> +1.7632913e+01 </wgt>
<wgt id='91'> +1.8459166e+01 </wgt>
<wgt id='92'> +1.7687651e+01 </wgt>
<wgt id='93'> +1.7086531e+01 </wgt>
<wgt id='94'> +1.7895484e+01 </wgt>
<wgt id='95'> +1.7396608e+01 </wgt>
<wgt id='96'> +1.7715676e+01 </wgt>
<wgt id='97'> +1.8008143e+01 </wgt>
<wgt id='98'> +1.6829393e+01 </wgt>
<wgt id='99'> +1.7474255e+01 </wgt>
<wgt id='100'> +1.8463576e+01 </wgt>
<wgt id='101'> +1.7292720e+01 </wgt>
<wgt id='102'> +1.6338912e+01 </wgt>
<wgt id='103'> +1.8218341e+01 </wgt>
<wgt id='104'> +1.7100677e+01 </wgt>
<wgt id='105'> +1.8546721e+01 </wgt>
<wgt id='106'> +1.7551790e+01 </wgt>
<wgt id='107'> +1.8379920e+01 </wgt>
<wgt id='108'> +1.7096518e+01 </wgt>
<wgt id='109'> +1.7419484e+01 </wgt>
<wgt id='110'> +1.7886804e+01 </wgt>
<wgt id='111'> +1.7510438e+01 </wgt>
<wgt id='112'> +1.7448907e+01 </wgt>
<wgt id='113'> +1.7026955e+01 </wgt>
<wgt id='114'> +1.8420660e+01 </wgt>
<wgt id='115'> +1.8142454e+01 </wgt>
<wgt id='116'> +1.6729606e+01 </wgt>
<wgt id='117'> +1.7900604e+01 </wgt>
<wgt id='118'> +1.7193706e+01 </wgt>
<wgt id='119'> +1.7441157e+01 </wgt>
<wgt id='120'> +1.7828821e+01 </wgt>
<wgt id='121'> +1.7641457e+01 </wgt>
<wgt id='122'> +1.7519065e+01 </wgt>
<wgt id='123'> +1.7358796e+01 </wgt>
<wgt id='124'> +1.7574469e+01 </wgt>
<wgt id='125'> +1.7769372e+01 </wgt>
<wgt id='126'> +1.7687861e+01 </wgt>
<wgt id='127'> +1.7650984e+01 </wgt>
<wgt id='128'> +1.6881482e+01 </wgt>
<wgt id='129'> +1.8990455e+01 </wgt>
<wgt id='130'> +1.7163167e+01 </wgt>
<wgt id='131'> +1.8472214e+01 </wgt>
<wgt id='132'> +1.7160168e+01 </wgt>
<wgt id='133'> +1.6952599e+01 </wgt>
<wgt id='134'> +1.6810039e+01 </wgt>
<wgt id='135'> +1.7904117e+01 </wgt>
<wgt id='136'> +1.6873897e+01 </wgt>
<wgt id='137'> +1.6443153e+01 </wgt>
<wgt id='138'> +1.5462907e+01 </wgt>
<wgt id='139'> +1.7612438e+01 </wgt>
<wgt id='140'> +1.8649619e+01 </wgt>
<wgt id='141'> +1.7281727e+01 </wgt>
<wgt id='142'> +1.8316424e+01 </wgt>
<wgt id='143'> +1.7336778e+01 </wgt>
<wgt id='144'> +1.8072428e+01 </wgt>
<wgt id='145'> +1.7494291e+01 </wgt>
</rwgt>
</event>
<event>
 3      1 +1.7556000e+01 1.25000000e+02 7.54677100e-03 1.23506900e-01
       21 -1    0    0  502  501 +0.0000000000e+00 +0.0000000000e+00 +1.4277390817e+01 1.4277390817e+01 0.0000000000e+00 0.0000e+00 1.0000e+00
       21 -1    0    0  501  502 -0.0000000000e+00 -0.0000000000e+00 -2.7359690927e+02 2.7359690927e+02 0.0000000000e+00 0.0000e+00 1.0000e+00
       25  1    1    2    0    0 +0.0000000000e+00 +0.0000000000e+00 -2.5931951845e+02 2.8787430009e+02 1.2500000000e+02 0.0000e+00 0.0000e+00
<mgrwt>
<rscale>  0 0.12500000E+03</rscale>
<asrwt>0</asrwt>
<pdfrwt beam="1">  1       21 0.21965218E-02 0.12500000E+03</pdfrwt>
<pdfrwt beam="2">  1       21 0.42091830E-01 0.12500000E+03</pdfrwt>
<totfact> 0.56479166E+06</totfact>
</mgrwt>
<rwgt>
<wgt id='1'> +1.6800800e+01 </wgt>
<wgt id='2'> +0.0000000e+00 </wgt>
<wgt id='3'> +1.6800800e+01 </wgt>
<wgt id='4'> +1.5664271e+01 </wgt>
<wgt id='5'> +1.6800800e+01 </wgt>
<wgt id='6'> +1.7556000e+01 </wgt>
<wgt id='7'> +0.0000000e+00 </wgt>
<wgt id='8'> +1.7556000e+01 </wgt>
<wgt id='9'> +1.6800800e+01 </wgt>
<wgt id='10'> +1.7556000e+01 </wgt>
<wgt id='11'> +1.7875096e+01 </wgt>
<wgt id='12'> +0.0000000e+00 </wgt>
<wgt id='13'> +1.7875096e+01 </wgt>
<wgt id='14'> +1.7556000e+01 </wgt>
<wgt id='15'> +1.7875096e+01 </wgt>
<wgt id='16'> +1.6800800e+01 </wgt>
<wgt id='17'> +0.0000000e+00 </wgt>
<wgt id='18'> +1.6800800e+01 </wgt>
<wgt id='19'> +1.5664271e+01 </wgt>
<wgt id='20'> +1.6800800e+01 </wgt>
<wgt id='21'> +0.0000000e+00 </wgt>
<wgt id='22'> +1.7556000e+01 </wgt>
<wgt id='23'> +1.6800800e+01 </wgt>
<wgt id='24'> +1.7556000e+01 </wgt>
<wgt id='25'> +1.7875096e+01 </wgt>
<wgt id='26'> +0.0000000e+00 </wgt>
<wgt id='27'> +1.7875096e+01 </wgt>
<wgt id='28'> +1.7556000e+01 </wgt>
<wgt id='29'> +1.7875096e+01 </wgt>
<wgt id='30'> +1.6800800e+01 </wgt>
<wgt id='31'> +0.0000000e+00 </wgt>
<wgt id='32'> +1.6800800e+01 </wgt>
<wgt id='33'> +1.5664271e+01 </wgt>
<wgt id='34'> +1.6800800e+01 </wgt>
<wgt id='35'> +1.7556000e+01 </wgt>
<wgt id='36'> +0.0000000e+00 </wgt>
<wgt id='37'> +1.7556000e+01 </wgt>
<wgt id='38'> +1.6800800e+01 </wgt>
<wgt id='39'> +1.7556000e+01 </wgt>
<wgt id='40'> +1.7875096e+01 </wgt>
<wgt id='41'> +0.0000000e+00 </wgt>
<wgt id='42'> +1.7875096e+01 </wgt>
<wgt id='43'> +1.7556000e+01 </wgt>
<wgt id='44'> +1.7875096e+01 </wgt>
<wgt id='45'> +1.7556000e+01 </wgt>
<wgt id='46'> +1.7317624e+01 </wgt>
<wgt id='47'> +1.7624757e+01 </wgt>
<wgt id='48'> +1.7403924e+01 </wgt>
<wgt id='49'> +1.7703788e+01 </wgt>
<wgt id='50'> +1.8538866e+01 </wgt>
<wgt id='51'> +1.7341811e+01 </wgt>
<wgt id='52'> +1.7500577e+01 </wgt>
<wgt id='53'> +1.7694613e+01 </wgt>
<wgt id='54'> +1.7614894e+01 </wgt>
<wgt id='55'> +1.6430433e+01 </wgt>
<wgt id='56'> +1.7060933e+01 </wgt>
<wgt id='57'> +1.7270471e+01 </wgt>
<wgt id='58'> +1.8141688e+01 </wgt>
<wgt id='59'> +1.7278195e+01 </wgt>
<wgt id='60'> +1.7291987e+01 </wgt>
<wgt id='61'> +1.7643146e+01 </wgt>
<wgt id='62'> +1.7382769e+01 </wgt>
<wgt id='63'> +1.7647894e+01 </wgt>
<wgt id='64'> +1.7785561e+01 </wgt>
<wgt id='65'> +1.9201879e+01 </wgt>
<wgt id='66'> +1.7121114e+01 </wgt>
<wgt id='67'> +1.7617744e+01 </wgt>
<wgt id='68'> +1.8156967e+01 </wgt>
<wgt id='69'> +1.6618903e+01 </wgt>
<wgt id='70'> +1.7403196e+01 </wgt>
<wgt id='71'> +1.7704198e+01 </wgt>
<wgt id='72'> +1.7922853e+01 </wgt>
<wgt id='73'> +1.7732384e+01 </wgt>
<wgt id='74'> +1.7711541e+01 </wgt>
<wgt id='75'> +1.7750058e+01 </wgt>
<wgt id='76'> +1.7218154e+01 </wgt>
<wgt id='77'> +1.7054613e+01 </wgt>
<wgt id='78'> +1.7814450e+01 </wgt>
<wgt id='79'> +1.7060358e+01 </wgt>
<wgt id='80'> +1.7487811e+01 </wgt>
<wgt id='81'> +1.7430307e+01 </wgt>
<wgt id='82'> +1.8026568e+01 </wgt>
<wgt id='83'> +1.7395683e+01 </wgt>
<wgt id='84'> +1.8261453e+01 </wgt>
<wgt id='85'> +1.8237505e+01 </wgt>
<wgt id='86'> +1.7236930e+01 </wgt>
<wgt id='87'> +1.7523453e+01 </wgt>
<wgt id='88'> +1.7359980e+01 </wgt>
<wgt id='89'> +1.7936454e+01 </wgt>
<wgt id='90'> +1.7761191e+01 </wgt>
<wgt id='91'> +1.8400572e+01 </wgt>
<wgt id='92'> +1.7052163e+01 </wgt>
<wgt id='93'> +1.7312305e+01 </wgt>
<wgt id='94'> +1.7726784e+01 </wgt>
<wgt id='95'> +1.7194929e+01 </wgt>
<wgt id='96'> +1.8068699e+01 </wgt>
<wgt id='97'> +1.7861821e+01 </wgt>
<wgt id='98'> +1.6834870e+01 </wgt>
<wgt id='99'> +1.7518178e+01 </wgt>
<wgt id='100'> +1.8094189e+01 </wgt>
<wgt id='101'> +1.7749621e+01 </wgt>
<wgt id='102'> +1.6746669e+01 </wgt>
<wgt id='103'> +1.8473584e+01 </wgt>
<wgt id='104'> +1.7165173e+01 </wgt>
<wgt id='105'> +1.8288239e+01 </wgt>
<wgt id='106'> +1.7069227e+01 </wgt>
<wgt id='107'> +1.7940534e+01 </wgt>
<wgt id='108'> +1.6620993e+01 </wgt>
<wgt id='109'> +1.7162703e+01 </wgt>
<wgt id='110'> +1.7865603e+01 </wgt>
<wgt id='111'> +1.7306558e+01 </wgt>
<wgt id='112'> +1.7200324e+01 </wgt>
<wgt id='113'> +1.6840081e+01 </wgt>
<wgt id='114'> +1.7948968e+01 </wgt>
<wgt id='115'> +1.7668037e+01 </wgt>
<wgt id='116'> +1.7098450e+01 </wgt>
<wgt id='117'> +1.7759236e+01 </wgt>
<wgt id='118'> +1.7575715e+01 </wgt>
<wgt id='119'> +1.7282996e+01 </wgt>
<wgt id='120'> +1.7559369e+01 </wgt>
<wgt id='121'> +1.7521310e+01 </wgt>
<wgt id='122'> +1.7464558e+01 </wgt>
<wgt id='123'> +1.7462355e+01 </wgt>
<wgt id='124'> +1.7932460e+01 </wgt>
<wgt id='125'> +1.8093305e+01 </wgt>
<wgt id='126'> +1.7885976e+01 </wgt>
<wgt id='127'> +1.7837893e+01 </wgt>
<wgt id='128'> +1.6616252e+01 </wgt>
<wgt id='129'> +1.9044799e+01 </wgt>
<wgt id='130'> +1.7181721e+01 </wgt>
<wgt id='131'> +1.8471438e+01 </wgt>
<wgt id='132'> +1.7357250e+01 </wgt>
<wgt id='133'> +1.7242288e+01 </wgt>
<wgt id='134'> +1.6823044e+01 </wgt>
<wgt id='135'> +1.7946136e+01 </wgt>
<wgt id='136'> +1.7013232e+01 </wgt>
<wgt id='137'> +1.6522709e+01 </wgt>
<wgt id='138'> +1.5796811e+01 </wgt>
<wgt id='139'> +1.7822320e+01 </wgt>
<wgt id='140'> +1.8501365e+01 </wgt>
<wgt id='141'> +1.7289889e+01 </wgt>
<wgt id='142'> +1.8084539e+01 </wgt>
<wgt id='143'> +1.7439144e+01 </wgt>
<wgt id='144'> +1.7865700e+01 </wgt>
<wgt id='145'> +1.7470553e+01 </wgt>
</rwgt>
</event>
<event>
 3      1 +1.7556000e+01 1.25000000e+02 7.54677100e-03 1.23506900e-01
       21 -1    0    0  502  501 +0.0000000000e+00 +0.0000000000e+00 +1.9791260845e+02 1.9791260845e+02 0.0000000000e+00 0.0000e+00 -1.0000e+00
       21 -1    0    0  501  502 -0.0000000000e+00 -0.0000000000e+00 -1.9737246811e+01 1.9737246811e+01 0.0000000000e+00 0.0000e+00 -1.0000e+00
       25  1    1    2    0    0 +0.0000000000e+00 +0.0000000000e+00 +1.7817536164e+02 2.1764985526e+02 1.2500000000e+02 0.0000e+00 0.0000e+00
<mgrwt>
<rscale>  0 0.12500000E+03</rscale>
<asrwt>0</asrwt>
<pdfrwt beam="1">  1       21 0.30448092E-01 0.12500000E+03</pdfrwt>
<pdfrwt beam="2">  1       21 0.30364996E-02 0.12500000E+03</pdfrwt>
<totfact> 0.63063563E+06</totfact>
</mgrwt>
<rwgt>
<wgt id='1'> +1.6739306e+01 </wgt>
<wgt id='2'> +0.0000000e+00 </wgt>
<wgt id='3'> +1.6739306e+01 </wgt>
<wgt id='4'> +1.5540958e+01 </wgt>
<wgt id='5'> +1.6739306e+01 </wgt>
<wgt id='6'> +1.7556000e+01 </wgt>
<wgt id='7'> +0.0000000e+00 </wgt>
<wgt id='8'> +1.7556000e+01 </wgt>
<wgt id='9'> +1.6739306e+01 </wgt>
<wgt id='10'> +1.7556000e+01 </wgt>
<wgt id='11'> +1.7932972e+01 </wgt>
<wgt id='12'> +0.0000000e+00 </wgt>
<wgt id='13'> +1.7932972e+01 </wgt>
<wgt id='14'> +1.7556000e+01 </wgt>
<wgt id='15'> +1.7932972e+01 </wgt>
<wgt id='16'> +1.6739306e+01 </wgt>
<wgt id='17'> +0.0000000e+00 </wgt>
<wgt id='18'> +1.6739306e+01 </wgt>
<wgt id='19'> +1.5540958e+01 </wgt>
<wgt id='20'> +1.6739306e+01 </wgt>
<wgt id='21'> +0.0000000e+00 </wgt>
<wgt id='22'> +1.7556000e+01 </wgt>
<wgt id='23'> +1.6739306e+01 </wgt>
<wgt id='24'> +1.7556000e+01 </wgt>
<wgt id='25'> +1.7932972e+01 </wgt>
<wgt id='26'> +0.0000000e+00 </wgt>
<wgt id='27'> +1.7932972e+01 </wgt>
<wgt id='28'> +1.7556000e+01 </wgt>
<wgt id='29'> +1.7932972e+01 </wgt>
<wgt id='30'> +1.6739306e+01 </wgt>
<wgt id='31'> +0.0000000e+00 </wgt>
<wgt id='32'> +1.6739306e+01 </wgt>
<wgt id='33'> +1.5540958e+01 </wgt>
<wgt id='34'> +1.6739306e+01 </wgt>
<wgt id='35'> +1.7556000e+01 </wgt>
<wgt id='36'> +0.0000000e+00 </wgt>
<wgt id='37'> +1.7556000e+01 </wgt>
<wgt id='38'> +1.6739306e+01 </wgt>
<wgt id='39'> +1.7556000e+01 </wgt>
<wgt id='40'> +1.7932972e+01 </wgt>
<wgt id='41'> +0.0000000e+00 </wgt>
<wgt id='42'> +1.7932972e+01 </wgt>
<wgt id='43'> +1.7556000e+01 </wgt>
<wgt id='44'> +1.7932972e+01 </wgt>
<wgt id='45'> +1.7556000e+01 </wgt>
<wgt id='46'> +1.7167427e+01 </wgt>
<wgt id='47'> +1.7578860e+01 </wgt>
<wgt id='48'> +1.7297643e+01 </wgt>
<wgt id='49'> +1.7657680e+01 </wgt>
<wgt id='50'> +1.8262576e+01 </wgt>
<wgt id='51'> +1.7316468e+01 </wgt>
<wgt id='52'> +1.7439747e+01 </wgt>
<wgt id='53'> +1.7844734e+01 </wgt>
<wgt id='54'> +1.7628924e+01 </wgt>
<wgt id='55'> +1.6468135e+01 </wgt>
<wgt id='56'> +1.7196330e+01 </wgt>
<wgt id='57'> +1.7298581e+01 </wgt>
<wgt id='58'> +1.8244738e+01 </wgt>
<wgt id='59'> +1.7128280e+01 </wgt>
<wgt id='60'> +1.7064720e+01 </wgt>
<wgt id='61'> +1.7904660e+01 </wgt>
<wgt id='62'> +1.7318155e+01 </wgt>
<wgt id='63'> +1.7632899e+01 </wgt>
<wgt id='64'> +1.7904381e+01 </wgt>
<wgt id='65'> +1.9276358e+01 </wgt>
<wgt id='66'> +1.7111229e+01 </wgt>
<wgt id='67'> +1.7644775e+01 </wgt>
<wgt id='68'> +1.8053279e+01 </wgt>
<wgt id='69'> +1.6468358e+01 </wgt>
<wgt id='70'> +1.7459237e+01 </wgt>
<wgt id='71'> +1.7752396e+01 </wgt>
<wgt id='72'> +1.8215658e+01 </wgt>
<wgt id='73'> +1.7748863e+01 </wgt>
<wgt id='74'> +1.7550885e+01 </wgt>
<wgt id='75'> +1.7690230e+01 </wgt>
<wgt id='76'> +1.7292678e+01 </wgt>
<wgt id='77'> +1.6925281e+01 </wgt>
<wgt id='78'> +1.7965365e+01 </wgt>
<wgt id='79'> +1.6932725e+01 </wgt>
<wgt id='80'> +1.7561711e+01 </wgt>
<wgt id='81'> +1.7514079e+01 </wgt>
<wgt id='82'> +1.8103249e+01 </wgt>
<wgt id='83'> +1.7348559e+01 </wgt>
<wgt id='84'> +1.8254912e+01 </wgt>
<wgt id='85'> +1.8192109e+01 </wgt>
<wgt id='86'> +1.7145475e+01 </wgt>
<wgt id='87'> +1.7450173e+01 </wgt>
<wgt id='88'> +1.7362366e+01 </wgt>
<wgt id='89'> +1.7791863e+01 </wgt>
<wgt id='90'> +1.7680563e+01 </wgt>
<wgt id='91'> +1.8448045e+01 </wgt>
<wgt id='92'> +1.7388469e+01 </wgt>
<wgt id='93'> +1.7182138e+01 </wgt>
<wgt id='94'> +1.7823546e+01 </wgt>
<wgt id='95'> +1.7294014e+01 </wgt>
<wgt id='96'> +1.7877606e+01 </wgt>
<wgt id='97'> +1.7950337e+01 </wgt>
<wgt id='98'> +1.6818445e+01 </wgt>
<wgt id='99'> +1.7501427e+01 </wgt>
<wgt id='100'> +1.8320143e+01 </wgt>
<wgt id='101'> +1.7474790e+01 </wgt>
<wgt id='102'> +1.6496716e+01 </wgt>
<wgt id='103'> +1.8334033e+01 </wgt>
<wgt id='104'> +1.7128402e+01 </wgt>
<wgt id='105'> +1.8433836e+01 </wgt>
<wgt id='106'> +1.7338132e+01 </wgt>
<wgt id='107'> +1.8199683e+01 </wgt>
<wgt id='108'> +1.6890917e+01 </wgt>
<wgt id='109'> +1.7306293e+01 </wgt>
<wgt id='110'> +1.7879860e+01 </wgt>
<wgt id='111'> +1.7418415e+01 </wgt>
<wgt id='112'> +1.7347809e+01 </wgt>
<wgt id='113'> +1.6941400e+01 </wgt>
<wgt id='114'> +1.8226821e+01 </wgt>
<wgt id='115'> +1.7964138e+01 </wgt>
<wgt id='116'> +1.6882241e+01 </wgt>
<wgt id='117'> +1.7852319e+01 </wgt>
<wgt id='118'> +1.7352862e+01 </wgt>
<wgt id='119'> +1.7366482e+01 </wgt>
<wgt id='120'> +1.7737900e+01 </wgt>
<wgt id='121'> +1.7583910e+01 </wgt>
<wgt id='122'> +1.7493607e+01 </wgt>
<wgt id='123'> +1.7409061e+01 </wgt>
<wgt id='124'> +1.7718867e+01 </wgt>
<wgt id='125'> +1.7899239e+01 </wgt>
<wgt id='126'> +1.7788961e+01 </wgt>
<wgt id='127'> +1.7734318e+01 </wgt>
<wgt id='128'> +1.6775331e+01 </wgt>
<wgt id='129'> +1.9017202e+01 </wgt>
<wgt id='130'> +1.7180216e+01 </wgt>
<wgt id='131'> +1.8482828e+01 </wgt>
<wgt id='132'> +1.7215388e+01 </wgt>
<wgt id='133'> +1.7067867e+01 </wgt>
<wgt id='134'> +1.6800321e+01 </wgt>
<wgt id='135'> +1.7925877e+01 </wgt>
<wgt id='136'> +1.6903530e+01 </wgt>
<wgt id='137'> +1.6472959e+01 </wgt>
<wgt id='138'> +1.5600740e+01 </wgt>
<wgt id='139'> +1.7701259e+01 </wgt>
<wgt id='140'> +1.8599093e+01 </wgt>
<wgt id='141'> +1.7282381e+01 </wgt>
<wgt id='142'> +1.8237496e+01 </wgt>
<wgt id='143'> +1.7365488e+01 </wgt>
<wgt id='144'> +1.7983262e+01 </wgt>
<wgt id='145'> +1.7481676e+01 </wgt>
</rwgt>
</event>
<event>
 3      1 +1.7556000e+01 1.25000000e+02 7.54677100e-03 1.23506900e-01
       21 -1    0    0  502  501 +0.0000000000e+00 +0.0000000000e+00 +6.7215211862e+00 6.7215211862e+00 0.0000000000e+00 0.0000e+00 1.0000e+00
       21 -1    0    0  501  502 -0.0000000000e+00 -0.0000000000e+00 -5.8115564793e+02 5.8115564793e+02 0.0000000000e+00 0.0000e+00 1.0000e+00
       25  1    1    2    0    0 +0.0000000000e+00 +0.0000000000e+00 -5.7443412674e+02 5.8787716911e+02 1.2500000000e+02 0.0000e+00 0.0000e+00
<mgrwt>
<rscale>  0 0.12500000E+03</rscale>
<asrwt>0</asrwt>
<pdfrwt beam="1">  1       21 0.10340801E-02 0.12500000E+03</pdfrwt>
<pdfrwt beam="2">  1       21 0.89408572E-01 0.12500000E+03</pdfrwt>
<totfact> 0.37646668E+06</totfact>
</mgrwt>
<rwgt>
<wgt id='1'> +1.7037085e+01 </wgt>
<wgt id='2'> +0.0000000e+00 </wgt>
<wgt id='3'> +1.7037085e+01 </wgt>
<wgt id='4'> +1.6134525e+01 </wgt>
<wgt id='5'> +1.7037085e+01 </wgt>
<wgt id='6'> +1.7556000e+01 </wgt>
<wgt id='7'> +0.0000000e+00 </wgt>
<wgt id='8'> +1.7556000e+01 </wgt>
<wgt id='9'> +1.7037085e+01 </wgt>
<wgt id='10'> +1.7556000e+01 </wgt>
<wgt id='11'> +1.7650774e+01 </wgt>
<wgt id='12'> +0.0000000e+00 </wgt>
<wgt id='13'> +1.7650774e+01 </wgt>
<wgt id='14'> +1.7556000e+01 </wgt>
<wgt id='15'> +1.7650774e+01 </wgt>
<wgt id='16'> +1.7037085e+01 </wgt>
<wgt id='17'> +0.0000000e+00 </wgt>
<wgt id='18'> +1.7037085e+01 </wgt>
<wgt id='19'> +1.6134525e+01 </wgt>
<wgt id='20'> +1.7037085e+01 </wgt>
<wgt id='21'> +0.0000000e+00 </wgt>
<wgt id='22'> +1.7556000e+01 </wgt>
<wgt id='23'> +1.7037085e+01 </wgt>
<wgt id='24'> +1.7556000e+01 </wgt>
<wgt id='25'> +1.7650774e+01 </wgt>
<wgt id='26'> +0.0000000e+00 </wgt>
<wgt id='27'> +1.7650774e+01 </wgt>
<wgt id='28'> +1.7556000e+01 </wgt>
<wgt id='29'> +1.7650774e+01 </wgt>
<wgt id='30'> +1.7037085e+01 </wgt>
<wgt id='31'> +0.0000000e+00 </wgt>
<wgt id='32'> +1.7037085e+01 </wgt>
<wgt id='33'> +1.6134525e+01 </wgt>
<wgt id='34'> +1.7037085e+01 </wgt>
<wgt id='35'> +1.7556000e+01 </wgt>
<wgt id='36'> +0.0000000e+00 </wgt>
<wgt id='37'> +1.7556000e+01 </wgt>
<wgt id='38'> +1.7037085e+01 </wgt>
<wgt id='39'> +1.7556000e+01 </wgt>
<wgt id='40'> +1.7650774e+01 </wgt>
<wgt id='41'> +0.0000000e+00 </wgt>
<wgt id='42'> +1.7650774e+01 </wgt>
<wgt id='43'> +1.7556000e+01 </wgt>
<wgt id='44'> +1.7650774e+01 </wgt>
<wgt id='45'> +1.7556000e+01 </wgt>
<wgt id='46'> +1.7832220e+01 </wgt>
<wgt id='47'> +1.7641293e+01 </wgt>
<wgt id='48'> +1.7662965e+01 </wgt>
<wgt id='49'> +1.7641653e+01 </wgt>
<wgt id='50'> +1.9310599e+01 </wgt>
<wgt id='51'> +1.7317226e+01 </wgt>
<wgt id='52'> +1.7689220e+01 </wgt>
<wgt id='53'> +1.7145883e+01 </wgt>
<wgt id='54'> +1.7707318e+01 </wgt>
<wgt id='55'> +1.7005111e+01 </wgt>
<wgt id='56'> +1.6581934e+01 </wgt>
<wgt id='57'> +1.7587164e+01 </wgt>
<wgt id='58'> +1.7594384e+01 </wgt>
<wgt id='59'> +1.8155739e+01 </wgt>
<wgt id='60'> +1.8149123e+01 </wgt>
<wgt id='61'> +1.5908818e+01 </wgt>
<wgt id='62'> +1.7436727e+01 </wgt>
<wgt id='63'> +1.7709204e+01 </wgt>
<wgt id='64'> +1.7470340e+01 </wgt>
<wgt id='65'> +1.8524023e+01 </wgt>
<wgt id='66'> +1.7178355e+01 </wgt>
<wgt id='67'> +1.7494834e+01 </wgt>
<wgt id='68'> +1.8628201e+01 </wgt>
<wgt id='69'> +1.7183265e+01 </wgt>
<wgt id='70'> +1.7317003e+01 </wgt>
<wgt id='71'> +1.7480953e+01 </wgt>
<wgt id='72'> +1.7275153e+01 </wgt>
<wgt id='73'> +1.7479501e+01 </wgt>
<wgt id='74'> +1.8341679e+01 </wgt>
<wgt id='75'> +1.7942500e+01 </wgt>
<wgt id='76'> +1.7288539e+01 </wgt>
<wgt id='77'> +1.7492090e+01 </wgt>
<wgt id='78'> +1.7026428e+01 </wgt>
<wgt id='79'> +1.7653517e+01 </wgt>
<wgt id='80'> +1.7102753e+01 </wgt>
<wgt id='81'> +1.7231781e+01 </wgt>
<wgt id='82'> +1.7367105e+01 </wgt>
<wgt id='83'> +1.7390335e+01 </wgt>
<wgt id='84'> +1.7970734e+01 </wgt>
<wgt id='85'> +1.7931943e+01 </wgt>
<wgt id='86'> +1.7546194e+01 </wgt>
<wgt id='87'> +1.7740987e+01 </wgt>
<wgt id='88'> +1.7176525e+01 </wgt>
<wgt id='89'> +1.8096809e+01 </wgt>
<wgt id='90'> +1.8004454e+01 </wgt>
<wgt id='91'> +1.7819040e+01 </wgt>
<wgt id='92'> +1.6412161e+01 </wgt>
<wgt id='93'> +1.7715554e+01 </wgt>
<wgt id='94'> +1.7296040e+01 </wgt>
<wgt id='95'> +1.7370676e+01 </wgt>
<wgt id='96'> +1.8317157e+01 </wgt>
<wgt id='97'> +1.7402829e+01 </wgt>
<wgt id='98'> +1.7189516e+01 </wgt>
<wgt id='99'> +1.7266472e+01 </wgt>
<wgt id='100'> +1.6918677e+01 </wgt>
<wgt id='101'> +1.8856404e+01 </wgt>
<wgt id='102'> +1.7896891e+01 </wgt>
<wgt id='103'> +1.8601376e+01 </wgt>
<wgt id='104'> +1.7347458e+01 </wgt>
<wgt id='105'> +1.7915611e+01 </wgt>
<wgt id='106'> +1.6502559e+01 </wgt>
<wgt id='107'> +1.7057209e+01 </wgt>
<wgt id='108'> +1.5968876e+01 </wgt>
<wgt id='109'> +1.6954760e+01 </wgt>
<wgt id='110'> +1.7695622e+01 </wgt>
<wgt id='111'> +1.7108923e+01 </wgt>
<wgt id='112'> +1.6855509e+01 </wgt>
<wgt id='113'> +1.6809757e+01 </wgt>
<wgt id='114'> +1.7288788e+01 </wgt>
<wgt id='115'> +1.6592306e+01 </wgt>
<wgt id='116'> +1.7908199e+01 </wgt>
<wgt id='117'> +1.7332216e+01 </wgt>
<wgt id='118'> +1.8295111e+01 </wgt>
<wgt id='119'> +1.7334778e+01 </wgt>
<wgt id='120'> +1.7069867e+01 </wgt>
<wgt id='121'> +1.7537044e+01 </wgt>
<wgt id='122'> +1.7452381e+01 </wgt>
<wgt id='123'> +1.7498266e+01 </wgt>
<wgt id='124'> +1.8743436e+01 </wgt>
<wgt id='125'> +1.8977354e+01 </wgt>
<wgt id='126'> +1.7942566e+01 </wgt>
<wgt id='127'> +1.7991143e+01 </wgt>
<wgt id='128'> +1.6110678e+01 </wgt>
<wgt id='129'> +1.8926527e+01 </wgt>
<wgt id='130'> +1.6953010e+01 </wgt>
<wgt id='131'> +1.8078818e+01 </wgt>
<wgt id='132'> +1.8303201e+01 </wgt>
<wgt id='133'> +1.7993136e+01 </wgt>
<wgt id='134'> +1.7219215e+01 </wgt>
<wgt id='135'> +1.7848568e+01 </wgt>
<wgt id='136'> +1.8113942e+01 </wgt>
<wgt id='137'> +1.6817821e+01 </wgt>
<wgt id='138'> +1.6576965e+01 </wgt>
<wgt id='139'> +1.8186561e+01 </wgt>
<wgt id='140'> +1.7947503e+01 </wgt>
<wgt id='141'> +1.7494727e+01 </wgt>
<wgt id='142'> +1.7008518e+01 </wgt>
<wgt id='143'> +1.7864577e+01 </wgt>
<wgt id='144'> +1.7381014e+01 </wgt>
<wgt id='145'> +1.7320370e+01 </wgt>
</rwgt>
</event>
<event>
 3      1 +1.7556000e+01 1.25000000e+02 7.54677100e-03 1.23506900e-01
       21 -1    0    0  502  501 +0.0000000000e+00 +0.0000000000e+00 +6.3278091184e+01 6.3278091184e+01 0.0000000000e+00 0.0000e+00 1.0000e+00
       21 -1    0    0  501  502 -0.0000000000e+00 -0.0000000000e+00 -6.1731476518e+01 6.1731476518e+01 0.0000000000e+00 0.0000e+00 1.0000e+00
       25  1    1    2    0    0 +0.0000000000e+00 +0.0000000000e+00 +1.5466146660e+00 1.2500956770e+02 1.2500000000e+02 0.0000e+00 0.0000e+00
<mgrwt>
<rscale>  0 0.12500000E+03</rscale>
<asrwt>0</asrwt>
<pdfrwt beam="1">  1       21 0.97350910E-02 0.12500000E+03</pdfrwt>
<pdfrwt beam="2">  1       21 0.94971502E-02 0.12500000E+03</pdfrwt>
<totfact> 0.74042289E+06</totfact>
</mgrwt>
<rwgt>
<wgt id='1'> +1.6647097e+01 </wgt>
<wgt id='2'> +0.0000000e+00 </wgt>
<wgt id='3'> +1.6647097e+01 </wgt>
<wgt id='4'> +1.5355549e+01 </wgt>
<wgt id='5'> +1.6647097e+01 </wgt>
<wgt id='6'> +1.7556000e+01 </wgt>
<wgt id='7'> +0.0000000e+00 </wgt>
<wgt id='8'> +1.7556000e+01 </wgt>
<wgt id='9'> +1.6647097e+01 </wgt>
<wgt id='10'> +1.7556000e+01 </wgt>
<wgt id='11'> +1.8019380e+01 </wgt>
<wgt id='12'> +0.0000000e+00 </wgt>
<wgt id='13'> +1.8019380e+01 </wgt>
<wgt id='14'> +1.7556000e+01 </wgt>
<wgt id='15'> +1.8019380e+01 </wgt>
<wgt id='16'> +1.6647097e+01 </wgt>
<wgt id='17'> +0.0000000e+00 </wgt>
<wgt id='18'> +1.6647097e+01 </wgt>
<wgt id='19'> +1.5355549e+01 </wgt>
<wgt id='20'> +1.6647097e+01 </wgt>
<wgt id='21'> +0.0000000e+00 </wgt>
<wgt id='22'> +1.7556000e+01 </wgt>
<wgt id='23'> +1.6647097e+01 </wgt>
<wgt id='24'> +1.7556000e+01 </wgt>
<wgt id='25'> +1.8019380e+01 </wgt>
<wgt id='26'> +0.0000000e+00 </wgt>
<wgt id='27'> +1.8019380e+01 </wgt>
<wgt id='28'> +1.7556000e+01 </wgt>
<wgt id='29'> +1.8019380e+01 </wgt>
<wgt id='30'> +1.6647097e+01 </wgt>
<wgt id='31'> +0.0000000e+00 </wgt>
<wgt id='32'> +1.6647097e+01 </wgt>
<wgt id='33'> +1.5355549e+01 </wgt>
<wgt id='34'> +1.6647097e+01 </wgt>
<wgt id='35'> +1.7556000e+01 </wgt>
<wgt id='36'> +0.0000000e+00 </wgt>
<wgt id='37'> +1.7556000e+01 </wgt>
<wgt id='38'> +1.6647097e+01 </wgt>
<wgt id='39'> +1.7556000e+01 </wgt>
<wgt id='40'> +1.8019380e+01 </wgt>
<wgt id='41'> +0.0000000e+00 </wgt>
<wgt id='42'> +1.8019380e+01 </wgt>
<wgt id='43'> +1.7556000e+01 </wgt>
<wgt id='44'> +1.8019380e+01 </wgt>
<wgt id='45'> +1.7556000e+01 </wgt>
<wgt id='46'> +1.6958746e+01 </wgt>
<wgt id='47'> +1.7487160e+01 </wgt>
<wgt id='48'> +1.7128365e+01 </wgt>
<wgt id='49'> +1.7557054e+01 </wgt>
<wgt id='50'> +1.7832360e+01 </wgt>
<wgt id='51'> +1.7270800e+01 </wgt>
<wgt id='52'> +1.7394170e+01 </wgt>
<wgt id='53'> +1.8025320e+01 </wgt>
<wgt id='54'> +1.7641503e+01 </wgt>
<wgt id='55'> +1.6651709e+01 </wgt>
<wgt id='56'> +1.7367046e+01 </wgt>
<wgt id='57'> +1.7419953e+01 </wgt>
<wgt id='58'> +1.8369567e+01 </wgt>
<wgt id='59'> +1.7012023e+01 </wgt>
<wgt id='60'> +1.6787427e+01 </wgt>
<wgt id='61'> +1.8149055e+01 </wgt>
<wgt id='62'> +1.7205137e+01 </wgt>
<wgt id='63'> +1.7597192e+01 </wgt>
<wgt id='64'> +1.8033603e+01 </wgt>
<wgt id='65'> +1.9312204e+01 </wgt>
<wgt id='66'> +1.7101815e+01 </wgt>
<wgt id='67'> +1.7686148e+01 </wgt>
<wgt id='68'> +1.7917295e+01 </wgt>
<wgt id='69'> +1.6247894e+01 </wgt>
<wgt id='70'> +1.7552430e+01 </wgt>
<wgt id='71'> +1.7853676e+01 </wgt>
<wgt id='72'> +1.8731845e+01 </wgt>
<wgt id='73'> +1.7749537e+01 </wgt>
<wgt id='74'> +1.7325777e+01 </wgt>
<wgt id='75'> +1.7587028e+01 </wgt>
<wgt id='76'> +1.7479859e+01 </wgt>
<wgt id='77'> +1.6764656e+01 </wgt>
<wgt id='78'> +1.8122324e+01 </wgt>
<wgt id='79'> +1.6780367e+01 </wgt>
<wgt id='80'> +1.7669114e+01 </wgt>
<wgt id='81'> +1.7648711e+01 </wgt>
<wgt id='82'> +1.8139555e+01 </wgt>
<wgt id='83'> +1.7251199e+01 </wgt>
<wgt id='84'> +1.8194033e+01 </wgt>
<wgt id='85'> +1.8030904e+01 </wgt>
<wgt id='86'> +1.7006530e+01 </wgt>
<wgt id='87'> +1.7345754e+01 </wgt>
<wgt id='88'> +1.7338784e+01 </wgt>
<wgt id='89'> +1.7557707e+01 </wgt>
<wgt id='90'> +1.7595759e+01 </wgt>
<wgt id='91'> +1.8454584e+01 </wgt>
<wgt id='92'> +1.8053592e+01 </wgt>
<wgt id='93'> +1.6987156e+01 </wgt>
<wgt id='94'> +1.7977101e+01 </wgt>
<wgt id='95'> +1.7522619e+01 </wgt>
<wgt id='96'> +1.7534753e+01 </wgt>
<wgt id='97'> +1.8064974e+01 </wgt>
<wgt id='98'> +1.6859363e+01 </wgt>
<wgt id='99'> +1.7435108e+01 </wgt>
<wgt id='100'> +1.8598383e+01 </wgt>
<wgt id='101'> +1.7122176e+01 </wgt>
<wgt id='102'> +1.6196425e+01 </wgt>
<wgt id='103'> +1.8091706e+01 </wgt>
<wgt id='104'> +1.7070443e+01 </wgt>
<wgt id='105'> +1.8668754e+01 </wgt>
<wgt id='106'> +1.7783781e+01 </wgt>
<wgt id='107'> +1.8556849e+01 </wgt>
<wgt id='108'> +1.7313127e+01 </wgt>
<wgt id='109'> +1.7537858e+01 </wgt>
<wgt id='110'> +1.7893024e+01 </wgt>
<wgt id='111'> +1.7612126e+01 </wgt>
<wgt id='112'> +1.7544031e+01 </wgt>
<wgt id='113'> +1.7119405e+01 </wgt>
<wgt id='114'> +1.8597582e+01 </wgt>
<wgt id='115'> +1.8277352e+01 </wgt>
<wgt id='116'> +1.6575378e+01 </wgt>
<wgt id='117'> +1.7928104e+01 </wgt>
<wgt id='118'> +1.7033242e+01 </wgt>
<wgt id='119'> +1.7526120e+01 </wgt>
<wgt id='120'> +1.7871548e+01 </wgt>
<wgt id='121'> +1.7708305e+01 </wgt>
<wgt id='122'> +1.7546378e+01 </wgt>
<wgt id='123'> +1.7296320e+01 </wgt>
<wgt id='124'> +1.7437129e+01 </wgt>
<wgt id='125'> +1.7644006e+01 </wgt>
<wgt id='126'> +1.7539026e+01 </wgt>
<wgt id='127'> +1.7560541e+01 </wgt>
<wgt id='128'> +1.6979504e+01 </wgt>
<wgt id='129'> +1.8962793e+01 </wgt>
<wgt id='130'> +1.7135291e+01 </wgt>
<wgt id='131'> +1.8449349e+01 </wgt>
<wgt id='132'> +1.7147521e+01 </wgt>
<wgt id='133'> +1.6843081e+01 </wgt>
<wgt id='134'> +1.6843382e+01 </wgt>
<wgt id='135'> +1.7878236e+01 </wgt>
<wgt id='136'> +1.6881225e+01 </wgt>
<wgt id='137'> +1.6416850e+01 </wgt>
<wgt id='138'> +1.5322472e+01 </wgt>
<wgt id='139'> +1.7520984e+01 </wgt>
<wgt id='140'> +1.8684237e+01 </wgt>
<wgt id='141'> +1.7283344e+01 </wgt>
<wgt id='142'> +1.8374973e+01 </wgt>
<wgt id='143'> +1.7333772e+01 </wgt>
<wgt id='144'> +1.8174327e+01 </wgt>
<wgt id='145'> +1.7514421e+01 </wgt>
</rwgt>
</event>
<event>
 3      1 +1.7556000e+01 1.25000000e+02 7.54677100e-03 1.23506900e-01
       21 -1    0    0  502  501 +0.0000000000e+00 +0.0000000000e+00 +3.0793048437e+01 3.0793048437e+01 0.0000000000e+00 0.0000e+00 1.0000e+00
       21 -1    0    0  501  502 -0.0000000000e+00 -0.0000000000e+00 -1.2685492987e+02 1.2685492987e+02 0.0000000000e+00 0.0000e+00 1.0000e+00
       25  1    1    2    0    0 +0.0000000000e+00 +0.0000000000e+00 -9.6061881436e+01 1.5764797831e+02 1.2500000000e+02 0.0000e+00 0.0000e+00
<mgrwt>
<rscale>  0 0.12500000E+03</rscale>
<asrwt>0</asrwt>
<pdfrwt beam="1">  1       21 0.47373921E-02 0.12500000E+03</pdfrwt>
<pdfrwt beam="2">  1       21 0.19516143E-01 0.12500000E+03</pdfrwt>
<totfact> 0.69808035E+06</totfact>
</mgrwt>
<rwgt>
<wgt id='1'> +1.6681411e+01 </wgt>
<wgt id='2'> +0.0000000e+00 </wgt>
<wgt id='3'> +1.6681411e+01 </wgt>
<wgt id='4'> +1.5424608e+01 </wgt>
<wgt id='5'> +1.6681411e+01 </wgt>
<wgt id='6'> +1.7556000e+01 </wgt>
<wgt id='7'> +0.0000000e+00 </wgt>
<wgt id='8'> +1.7556000e+01 </wgt>
<wgt id='9'> +1.6681411e+01 </wgt>
<wgt id='10'> +1.7556000e+01 </wgt>
<wgt id='11'> +1.7987277e+01 </wgt>
<wgt id='12'> +0.0000000e+00 </wgt>
<wgt id='13'> +1.7987277e+01 </wgt>
<wgt id='14'> +1.7556000e+01 </wgt>
<wgt id='15'> +1.7987277e+01 </wgt>
<wgt id='16'> +1.6681411e+01 </wgt>
<wgt id='17'> +0.0000000e+00 </wgt>
<wgt id='18'> +1.6681411e+01 </wgt>
<wgt id='19'> +1.5424608e+01 </wgt>
<wgt id='20'> +1.6681411e+01 </wgt>
<wgt id='21'> +0.0000000e+00 </wgt>
<wgt id='22'> +1.7556000e+01 </wgt>
<wgt id='23'> +1.6681411e+01 </wgt>
<wgt id='24'> +1.7556000e+01 </wgt>
<wgt id='25'> +1.7987277e+01 </wgt>
<wgt id='26'> +0.0000000e+00 </wgt>
<wgt id='27'> +1.7987277e+01 </wgt>
<wgt id='28'> +1.7556000e+01 </wgt>
<wgt id='29'> +1.7987277e+01 </wgt>
<wgt id='30'> +1.6681411e+01 </wgt>
<wgt id='31'> +0.0000000e+00 </wgt>
<wgt id='32'> +1.6681411e+01 </wgt>
<wgt id='33'> +1.5424608e+01 </wgt>
<wgt id='34'> +1.6681411e+01 </wgt>
<wgt id='35'> +1.7556000e+01 </wgt>
<wgt id='36'> +0.0000000e+00 </wgt>
<wgt id='37'> +1.7556000e+01 </wgt>
<wgt id='38'> +1.6681411e+01 </wgt>
<wgt id='39'> +1.7556000e+01 </wgt>
<wgt id='40'> +1.7987277e+01 </wgt>
<wgt id='41'> +0.0000000e+00 </wgt>
<wgt id='42'> +1.7987277e+01 </wgt>
<wgt id='43'> +1.7556000e+01 </wgt>
<wgt id='44'> +1.7987277e+01 </wgt>
<wgt id='45'> +1.7556000e+01 </wgt>
<wgt id='46'> +1.7033101e+01 </wgt>
<wgt id='47'> +1.7523493e+01 </wgt>
<wgt id='48'> +1.7191813e+01 </wgt>
<wgt id='49'> +1.7597757e+01 </wgt>
<wgt id='50'> +1.7992783e+01 </wgt>
<wgt id='51'> +1.7287966e+01 </wgt>
<wgt id='52'> +1.7401740e+01 </wgt>
<wgt id='53'> +1.7965860e+01 </wgt>
<wgt id='54'> +1.7639880e+01 </wgt>
<wgt id='55'> +1.6568697e+01 </wgt>
<wgt id='56'> +1.7308606e+01 </wgt>
<wgt id='57'> +1.7365557e+01 </wgt>
<wgt id='58'> +1.8326558e+01 </wgt>
<wgt id='59'> +1.7039552e+01 </wgt>
<wgt id='60'> +1.6879677e+01 </wgt>
<wgt id='61'> +1.8076151e+01 </wgt>
<wgt id='62'> +1.7248278e+01 </wgt>
<wgt id='63'> +1.7612333e+01 </wgt>
<wgt id='64'> +1.7995107e+01 </wgt>
<wgt id='65'> +1.9308381e+01 </wgt>
<wgt id='66'> +1.7104273e+01 </wgt>
<wgt id='67'> +1.7669996e+01 </wgt>
<wgt id='68'> +1.7965374e+01 </wgt>
<wgt id='69'> +1.6328879e+01 </wgt>
<wgt id='70'> +1.7516911e+01 </wgt>
<wgt id='71'> +1.7809989e+01 </wgt>
<wgt id='72'> +1.8531239e+01 </wgt>
<wgt id='73'> +1.7751610e+01 </wgt>
<wgt id='74'> +1.7406825e+01 </wgt>
<wgt id='75'> +1.7627053e+01 </wgt>
<wgt id='76'> +1.7400029e+01 </wgt>
<wgt id='77'> +1.6818254e+01 </wgt>
<wgt id='78'> +1.8073880e+01 </wgt>
<wgt id='79'> +1.6831142e+01 </wgt>
<wgt id='80'> +1.7628283e+01 </wgt>
<wgt id='81'> +1.7597603e+01 </wgt>
<wgt id='82'> +1.8135542e+01 </wgt>
<wgt id='83'> +1.7290157e+01 </wgt>
<wgt id='84'> +1.8222445e+01 </wgt>
<wgt id='85'> +1.8102569e+01 </wgt>
<wgt id='86'> +1.7058039e+01 </wgt>
<wgt id='87'> +1.7383139e+01 </wgt>
<wgt id='88'> +1.7350276e+01 </wgt>
<wgt id='89'> +1.7644542e+01 </wgt>
<wgt id='90'> +1.7621234e+01 </wgt>
<wgt id='91'> +1.8459575e+01 </wgt>
<wgt id='92'> +1.7781749e+01 </wgt>
<wgt id='93'> +1.7058883e+01 </wgt>
<wgt id='94'> +1.7916770e+01 </wgt>
<wgt id='95'> +1.7429797e+01 </wgt>
<wgt id='96'> +1.7666778e+01 </wgt>
<wgt id='97'> +1.8023980e+01 </wgt>
<wgt id='98'> +1.6835687e+01 </wgt>
<wgt id='99'> +1.7464242e+01 </wgt>
<wgt id='100'> +1.8501954e+01 </wgt>
<wgt id='101'> +1.7243746e+01 </wgt>
<wgt id='102'> +1.6297287e+01 </wgt>
<wgt id='103'> +1.8183939e+01 </wgt>
<wgt id='104'> +1.7092658e+01 </wgt>
<wgt id='105'> +1.8580214e+01 </wgt>
<wgt id='106'> +1.7614893e+01 </wgt>
<wgt id='107'> +1.8429917e+01 </wgt>
<wgt id='108'> +1.7156039e+01 </wgt>
<wgt id='109'> +1.7452235e+01 </wgt>
<wgt id='110'> +1.7888442e+01 </wgt>
<wgt id='111'> +1.7538062e+01 </wgt>
<wgt id='112'> +1.7476265e+01 </wgt>
<wgt id='113'> +1.7052133e+01 </wgt>
<wgt id='114'> +1.8473140e+01 </wgt>
<wgt id='115'> +1.8186075e+01 </wgt>
<wgt id='116'> +1.6686663e+01 </wgt>
<wgt id='117'> +1.7910953e+01 </wgt>
<wgt id='118'> +1.7148739e+01 </wgt>
<wgt id='119'> +1.7463965e+01 </wgt>
<wgt id='120'> +1.7846847e+01 </wgt>
<wgt id='121'> +1.7659220e+01 </wgt>
<wgt id='122'> +1.7526663e+01 </wgt>
<wgt id='123'> +1.7342714e+01 </wgt>
<wgt id='124'> +1.7535383e+01 </wgt>
<wgt id='125'> +1.7734009e+01 </wgt>
<wgt id='126'> +1.7653139e+01 </wgt>
<wgt id='127'> +1.7626253e+01 </wgt>
<wgt id='128'> +1.6909878e+01 </wgt>
<wgt id='129'> +1.8982873e+01 </wgt>
<wgt id='130'> +1.7156588e+01 </wgt>
<wgt id='131'> +1.8467088e+01 </wgt>
<wgt id='132'> +1.7151978e+01 </wgt>
<wgt id='133'> +1.6921230e+01 </wgt>
<wgt id='134'> +1.6816741e+01 </wgt>
<wgt id='135'> +1.7897100e+01 </wgt>
<wgt id='136'> +1.6872241e+01 </wgt>
<wgt id='137'> +1.6435381e+01 </wgt>
<wgt id='138'> +1.5423664e+01 </wgt>
<wgt id='139'> +1.7586946e+01 </wgt>
<wgt id='140'> +1.8661094e+01 </wgt>
<wgt id='141'> +1.7282201e+01 </wgt>
<wgt id='142'> +1.8334660e+01 </wgt>
<wgt id='143'> +1.7332930e+01 </wgt>
<wgt id='144'> +1.8099137e+01 </wgt>
<wgt id='145'> +1.7499131e+01 </wgt>
</rwgt>
</event>
<event>
 3      1 +1.7556000e+01 1.25000000e+02 7.54677100e-03 1.23506900e-01
       21 -1    0    0  502  501 +0.0000000000e+00 +0.0000000000e+00 +1.3303321961e+02 1.3303321961e+02 0.0000000000e+00 0.0000e+00 1.0000e+00
       21 -1    0    0  501  502 -0.0000000000e+00 -0.0000000000e+00 -2.9362966719e+01 2.9362966719e+01 0.0000000000e+00 0.0000e+00 1.0000e+00
       25  1    1    2    0    0 +0.0000000000e+00 +0.0000000000e+00 +1.0367025289e+02 1.6239618633e+02 1.2500000000e+02 0.0000e+00 0.0000e+00
<mgrwt>
<rscale>  0 0.12500000E+03</rscale>
<asrwt>0</asrwt>
<pdfrwt beam="1">  1       21 0.20466649E-01 0.12500000E+03</pdfrwt>
<pdfrwt beam="2">  1       21 0.45173796E-02 0.12500000E+03</pdfrwt>
<totfact> 0.69227887E+06</totfact>
</mgrwt>
<rwgt>
<wgt id='1'> +1.6686422e+01 </wgt>
<wgt id='2'> +0.0000000e+00 </wgt>
<wgt id='3'> +1.6686422e+01 </wgt>
<wgt id='4'> +1.5434655e+01 </wgt>
<wgt id='5'> +1.6686422e+01 </wgt>
<wgt id='6'> +1.7556000e+01 </wgt>
<wgt id='7'> +0.0000000e+00 </wgt>
<wgt id='8'> +1.7556000e+01 </wgt>
<wgt id='9'> +1.6686422e+01 </wgt>
<wgt id='10'> +1.7556000e+01 </wgt>
<wgt id='11'> +1.7982560e+01 </wgt>
<wgt id='12'> +0.0000000e+00 </wgt>
<wgt id='13'> +1.7982560e+01 </wgt>
<wgt id='14'> +1.7556000e+01 </wgt>
<wgt id='15'> +1.7982560e+01 </wgt>
<wgt id='16'> +1.6686422e+01 </wgt>
<wgt id='17'> +0.0000000e+00 </wgt>
<wgt id='18'> +1.6686422e+01 </wgt>
<wgt id='19'> +1.5434655e+01 </wgt>
<wgt id='20'> +1.6686422e+01 </wgt>
<wgt id='21'> +0.0000000e+00 </wgt>
<wgt id='22'> +1.7556000e+01 </wgt>
<wgt id='23'> +1.6686422e+01 </wgt>
<wgt id='24'> +1.7556000e+01 </wgt>
<wgt id='25'> +1.7982560e+01 </wgt>
<wgt id='26'> +0.0000000e+00 </wgt>
<wgt id='27'> +1.7982560e+01 </wgt>
<wgt id='28'> +1.7556000e+01 </wgt>
<wgt id='29'> +1.7982560e+01 </wgt>
<wgt id='30'> +1.6686422e+01 </wgt>
<wgt id='31'> +0.0000000e+00 </wgt>
<wgt id='32'> +1.6686422e+01 </wgt>
<wgt id='33'> +1.5434655e+01 </wgt>
<wgt id='34'> +1.6686422e+01 </wgt>
<wgt id='35'> +1.7556000e+01 </wgt>
<wgt id='36'> +0.0000000e+00 </wgt>
<wgt id='37'> +1.7556000e+01 </wgt>
<wgt id='38'> +1.6686422e+01 </wgt>
<wgt id='39'> +1.7556000e+01 </wgt>
<wgt id='40'> +1.7982560e+01 </wgt>
<wgt id='41'> +0.0000000e+00 </wgt>
<wgt id='42'> +1.7982560e+01 </wgt>
<wgt id='43'> +1.7556000e+01 </wgt>
<wgt id='44'> +1.7982560e+01 </wgt>
<wgt id='45'> +1.7556000e+01 </wgt>
<wgt id='46'> +1.7043835e+01 </wgt>
<wgt id='47'> +1.7528476e+01 </wgt>
<wgt id='48'> +1.7200668e+01 </wgt>
<wgt id='49'> +1.7603133e+01 </wgt>
<wgt id='50'> +1.8015460e+01 </wgt>
<wgt id='51'> +1.7290357e+01 </wgt>
<wgt id='52'> +1.7403920e+01 </wgt>
<wgt id='53'> +1.7956779e+01 </wgt>
<wgt id='54'> +1.7639249e+01 </wgt>
<wgt id='55'> +1.6558242e+01 </wgt>
<wgt id='56'> +1.7299811e+01 </wgt>
<wgt id='57'> +1.7358747e+01 </wgt>
<wgt id='58'> +1.8320198e+01 </wgt>
<wgt id='59'> +1.7044932e+01 </wgt>
<wgt id='60'> +1.6893555e+01 </wgt>
<wgt id='61'> +1.8064363e+01 </wgt>
<wgt id='62'> +1.7254218e+01 </wgt>
<wgt id='63'> +1.7614242e+01 </wgt>
<wgt id='64'> +1.7988617e+01 </wgt>
<wgt id='65'> +1.9307303e+01 </wgt>
<wgt id='66'> +1.7104718e+01 </wgt>
<wgt id='67'> +1.7667873e+01 </wgt>
<wgt id='68'> +1.7972378e+01 </wgt>
<wgt id='69'> +1.6340329e+01 </wgt>
<wgt id='70'> +1.7512015e+01 </wgt>
<wgt id='71'> +1.7804659e+01 </wgt>
<wgt id='72'> +1.8503905e+01 </wgt>
<wgt id='73'> +1.7751656e+01 </wgt>
<wgt id='74'> +1.7418444e+01 </wgt>
<wgt id='75'> +1.7632539e+01 </wgt>
<wgt id='76'> +1.7389888e+01 </wgt>
<wgt id='77'> +1.6826347e+01 </wgt>
<wgt id='78'> +1.8066130e+01 </wgt>
<wgt id='79'> +1.6838746e+01 </wgt>
<wgt id='80'> +1.7622769e+01 </wgt>
<wgt id='81'> +1.7590540e+01 </wgt>
<wgt id='82'> +1.8134158e+01 </wgt>
<wgt id='83'> +1.7295461e+01 </wgt>
<wgt id='84'> +1.8226085e+01 </wgt>
<wgt id='85'> +1.8111518e+01 </wgt>
<wgt id='86'> +1.7065269e+01 </wgt>
<wgt id='87'> +1.7388518e+01 </wgt>
<wgt id='88'> +1.7351749e+01 </wgt>
<wgt id='89'> +1.7656810e+01 </wgt>
<wgt id='90'> +1.7625410e+01 </wgt>
<wgt id='91'> +1.8459686e+01 </wgt>
<wgt id='92'> +1.7746385e+01 </wgt>
<wgt id='93'> +1.7068955e+01 </wgt>
<wgt id='94'> +1.7908798e+01 </wgt>
<wgt id='95'> +1.7417376e+01 </wgt>
<wgt id='96'> +1.7685051e+01 </wgt>
<wgt id='97'> +1.8018186e+01 </wgt>
<wgt id='98'> +1.6833154e+01 </wgt>
<wgt id='99'> +1.7467832e+01 </wgt>
<wgt id='100'> +1.8487820e+01 </wgt>
<wgt id='101'> +1.7261758e+01 </wgt>
<wgt id='102'> +1.6312419e+01 </wgt>
<wgt id='103'> +1.8196807e+01 </wgt>
<wgt id='104'> +1.7095722e+01 </wgt>
<wgt id='105'> +1.8567947e+01 </wgt>
<wgt id='106'> +1.7591373e+01 </wgt>
<wgt id='107'> +1.8411506e+01 </wgt>
<wgt id='108'> +1.7133889e+01 </wgt>
<wgt id='109'> +1.7439996e+01 </wgt>
<wgt id='110'> +1.7887770e+01 </wgt>
<wgt id='111'> +1.7527827e+01 </wgt>
<wgt id='112'> +1.7466161e+01 </wgt>
<wgt id='113'> +1.7042591e+01 </wgt>
<wgt id='114'> +1.8454029e+01 </wgt>
<wgt id='115'> +1.8170516e+01 </wgt>
<wgt id='116'> +1.6702488e+01 </wgt>
<wgt id='117'> +1.7907371e+01 </wgt>
<wgt id='118'> +1.7165275e+01 </wgt>
<wgt id='119'> +1.7455403e+01 </wgt>
<wgt id='120'> +1.7840658e+01 </wgt>
<wgt id='121'> +1.7652505e+01 </wgt>
<wgt id='122'> +1.7523833e+01 </wgt>
<wgt id='123'> +1.7348787e+01 </wgt>
<wgt id='124'> +1.7549873e+01 </wgt>
<wgt id='125'> +1.7747113e+01 </wgt>
<wgt id='126'> +1.7666518e+01 </wgt>
<wgt id='127'> +1.7635414e+01 </wgt>
<wgt id='128'> +1.6899441e+01 </wgt>
<wgt id='129'> +1.8985966e+01 </wgt>
<wgt id='130'> +1.7159252e+01 </wgt>
<wgt id='131'> +1.8469207e+01 </wgt>
<wgt id='132'> +1.7154627e+01 </wgt>
<wgt id='133'> +1.6932671e+01 </wgt>
<wgt id='134'> +1.6813981e+01 </wgt>
<wgt id='135'> +1.7899711e+01 </wgt>
<wgt id='136'> +1.6872469e+01 </wgt>
<wgt id='137'> +1.6438156e+01 </wgt>
<wgt id='138'> +1.5437977e+01 </wgt>
<wgt id='139'> +1.7596289e+01 </wgt>
<wgt id='140'> +1.8657110e+01 </wgt>
<wgt id='141'> +1.7282095e+01 </wgt>
<wgt id='142'> +1.8328050e+01 </wgt>
<wgt id='143'> +1.7334117e+01 </wgt>
<wgt id='144'> +1.8089172e+01 </wgt>
<wgt id='145'> +1.7497357e+01 </wgt>
</rwgt>
</event>
<event>
 3      1 +1.7556000e+01 1.25000000e+02 7.54677100e-03 1.23506900e-01
       21 -1    0    0  502  501 +0.0000000000e+00 +0.0000000000e+00 +1.7100777722e+02 1.7100777722e+02 0.0000000000e+00 0.0000e+00 -1.0000e+00
       21 -1    0    0  501  502 -0.0000000000e+00 -0.0000000000e+00 -2.2842528354e+01 2.2842528354e+01 0.0000000000e+00 0.0000e+00 -1.0000e+00
       25  1    1    2    0    0 +0.0000000000e+00 +0.0000000000e+00 +1.4816524887e+02 1.9385030558e+02 1.2500000000e+02 0.0000e+00 0.0000e+00
<mgrwt>
<rscale>  0 0.12500000E+03</rscale>
<asrwt>0</asrwt>
<pdfrwt beam="1">  1       21 0.26308888E-01 0.12500000E+03</pdfrwt>
<pdfrwt beam="2">  1       21 0.35142352E-02 0.12500000E+03</pdfrwt>
<totfact> 0.65597073E+06</totfact>
</mgrwt>
<rwgt>
<wgt id='1'> +1.6715648e+01 </wgt>
<wgt id='2'> +0.0000000e+00 </wgt>
<wgt id='3'> +1.6715648e+01 </wgt>
<wgt id='4'> +1.5493629e+01 </wgt>
<wgt id='5'> +1.6715648e+01 </wgt>
<wgt id='6'> +1.7556000e+01 </wgt>
<wgt id='7'> +0.0000000e+00 </wgt>
<wgt id='8'> +1.7556000e+01 </wgt>
<wgt id='9'> +1.6715648e+01 </wgt>
<wgt id='10'> +1.7556000e+01 </wgt>
<wgt id='11'> +1.7955332e+01 </wgt>
<wgt id='12'> +0.0000000e+00 </wgt>
<wgt id='13'> +1.7955332e+01 </wgt>
<wgt id='14'> +1.7556000e+01 </wgt>
<wgt id='15'> +1.7955332e+01 </wgt>
<wgt id='16'> +1.6715648e+01 </wgt>
<wgt id='17'> +0.0000000e+00 </wgt>
<wgt id='18'> +1.6715648e+01 </wgt>
<wgt id='19'> +1.5493629e+01 </wgt>
<wgt id='20'> +1.6715648e+01 </wgt>
<wgt id='21'> +0.0000000e+00 </wgt>
<wgt id='22'> +1.7556000e+01 </wgt>
<wgt id='23'> +1.6715648e+01 </wgt>
<wgt id='24'> +1.7556000e+01 </wgt>
<wgt id='25'> +1.7955332e+01 </wgt>
<wgt id='26'> +0.0000000e+00 </wgt>
<wgt id='27'> +1.7955332e+01 </wgt>
<wgt id='28'> +1.7556000e+01 </wgt>
<wgt id='29'> +1.7955332e+01 </wgt>
<wgt id='30'> +1.6715648e+01 </wgt>
<wgt id='31'> +0.0000000e+00 </wgt>
<wgt id='32'> +1.6715648e+01 </wgt>
<wgt id='33'> +1.5493629e+01 </wgt>
<wgt id='34'> +1.6715648e+01 </wgt>
<wgt id='35'> +1.7556000e+01 </wgt>
<wgt id='36'> +0.0000000e+00 </wgt>
<wgt id='37'> +1.7556000e+01 </wgt>
<wgt id='38'> +1.6715648e+01 </wgt>
<wgt id='39'> +1.7556000e+01 </wgt>
<wgt id='40'> +1.7955332e+01 </wgt>
<wgt id='41'> +0.0000000e+00 </wgt>
<wgt id='42'> +1.7955332e+01 </wgt>
<wgt id='43'> +1.7556000e+01 </wgt>
<wgt id='44'> +1.7955332e+01 </wgt>
<wgt id='45'> +1.7556000e+01 </wgt>
<wgt id='46'> +1.7114980e+01 </wgt>
<wgt id='47'> +1.7558373e+01 </wgt>
<wgt id='48'> +1.7257572e+01 </wgt>
<wgt id='49'> +1.7636691e+01 </wgt>
<wgt id='50'> +1.8158416e+01 </wgt>
<wgt id='51'> +1.7306095e+01 </wgt>
<wgt id='52'> +1.7422501e+01 </wgt>
<wgt id='53'> +1.7893511e+01 </wgt>
<wgt id='54'> +1.7633814e+01 </wgt>
<wgt id='55'> +1.6500412e+01 </wgt>
<wgt id='56'> +1.7242134e+01 </wgt>
<wgt id='57'> +1.7319864e+01 </wgt>
<wgt id='58'> +1.8278105e+01 </wgt>
<wgt id='59'> +1.7088145e+01 </wgt>
<wgt id='60'> +1.6991050e+01 </wgt>
<wgt id='61'> +1.7979199e+01 </wgt>
<wgt id='62'> +1.7292388e+01 </wgt>
<wgt id='63'> +1.7626025e+01 </wgt>
<wgt id='64'> +1.7942756e+01 </wgt>
<wgt id='65'> +1.9290478e+01 </wgt>
<wgt id='66'> +1.7108371e+01 </wgt>
<wgt id='67'> +1.7654246e+01 </wgt>
<wgt id='68'> +1.8018090e+01 </wgt>
<wgt id='69'> +1.6414411e+01 </wgt>
<wgt id='70'> +1.7481061e+01 </wgt>
<wgt id='71'> +1.7772238e+01 </wgt>
<wgt id='72'> +1.8332514e+01 </wgt>
<wgt id='73'> +1.7751632e+01 </wgt>
<wgt id='74'> +1.7494664e+01 </wgt>
<wgt id='75'> +1.7666635e+01 </wgt>
<wgt id='76'> +1.7329490e+01 </wgt>
<wgt id='77'> +1.6882644e+01 </wgt>
<wgt id='78'> +1.8010958e+01 </wgt>
<wgt id='79'> +1.6892109e+01 </wgt>
<wgt id='80'> +1.7587302e+01 </wgt>
<wgt id='81'> +1.7545797e+01 </wgt>
<wgt id='82'> +1.8119964e+01 </wgt>
<wgt id='83'> +1.7327142e+01 </wgt>
<wgt id='84'> +1.8244158e+01 </wgt>
<wgt id='85'> +1.8162889e+01 </wgt>
<wgt id='86'> +1.7112041e+01 </wgt>
<wgt id='87'> +1.7424206e+01 </wgt>
<wgt id='88'> +1.7358681e+01 </wgt>
<wgt id='89'> +1.7736246e+01 </wgt>
<wgt id='90'> +1.7655577e+01 </wgt>
<wgt id='91'> +1.8455572e+01 </wgt>
<wgt id='92'> +1.7530270e+01 </wgt>
<wgt id='93'> +1.7135177e+01 </wgt>
<wgt id='94'> +1.7858663e+01 </wgt>
<wgt id='95'> +1.7341848e+01 </wgt>
<wgt id='96'> +1.7799184e+01 </wgt>
<wgt id='97'> +1.7979267e+01 </wgt>
<wgt id='98'> +1.6821280e+01 </wgt>
<wgt id='99'> +1.7489987e+01 </wgt>
<wgt id='100'> +1.8393548e+01 </wgt>
<wgt id='101'> +1.7382494e+01 </wgt>
<wgt id='102'> +1.6416174e+01 </wgt>
<wgt id='103'> +1.8277704e+01 </wgt>
<wgt id='104'> +1.7114655e+01 </wgt>
<wgt id='105'> +1.8488721e+01 </wgt>
<wgt id='106'> +1.7442614e+01 </wgt>
<wgt id='107'> +1.8290086e+01 </wgt>
<wgt id='108'> +1.6992505e+01 </wgt>
<wgt id='109'> +1.7362134e+01 </wgt>
<wgt id='110'> +1.7883805e+01 </wgt>
<wgt id='111'> +1.7462811e+01 </wgt>
<wgt id='112'> +1.7399140e+01 </wgt>
<wgt id='113'> +1.6983288e+01 </wgt>
<wgt id='114'> +1.8324361e+01 </wgt>
<wgt id='115'> +1.8056853e+01 </wgt>
<wgt id='116'> +1.6806260e+01 </wgt>
<wgt id='117'> +1.7878358e+01 </wgt>
<wgt id='118'> +1.7273589e+01 </wgt>
<wgt id='119'> +1.7402448e+01 </wgt>
<wgt id='120'> +1.7788458e+01 </wgt>
<wgt id='121'> +1.7611558e+01 </wgt>
<wgt id='122'> +1.7505928e+01 </wgt>
<wgt id='123'> +1.7385254e+01 </wgt>
<wgt id='124'> +1.7645734e+01 </wgt>
<wgt id='125'> +1.7833525e+01 </wgt>
<wgt id='126'> +1.7742710e+01 </wgt>
<wgt id='127'> +1.7693709e+01 </wgt>
<wgt id='128'> +1.6829234e+01 </wgt>
<wgt id='129'> +1.9003634e+01 </wgt>
<wgt id='130'> +1.7172934e+01 </wgt>
<wgt id='131'> +1.8479074e+01 </wgt>
<wgt id='132'> +1.7182745e+01 </wgt>
<wgt id='133'> +1.7009684e+01 </wgt>
<wgt id='134'> +1.6802673e+01 </wgt>
<wgt id='135'> +1.7915620e+01 </wgt>
<wgt id='136'> +1.6883878e+01 </wgt>
<wgt id='137'> +1.6457702e+01 </wgt>
<wgt id='138'> +1.5532308e+01 </wgt>
<wgt id='139'> +1.7657434e+01 </wgt>
<wgt id='140'> +1.8625978e+01 </wgt>
<wgt id='141'> +1.7281548e+01 </wgt>
<wgt id='142'> +1.8279947e+01 </wgt>
<wgt id='143'> +1.7348530e+01 </wgt>
<wgt id='144'> +1.8026882e+01 </wgt>
<wgt id='145'> +1.7486911e+01 </wgt>
</rwgt>
</event>
<event>
 3      1 +1.7556000e+01 1.25000000e+02 7.54677100e-03 1.23506900e-01
       21 -1    0    0  502  501 +0.0000000000e+00 +0.0000000000e+00 +2.7279647921e+01 2.7279647921e+01 0.0000000000e+00 0.0000e+00 -1.0000e+00
       21 -1    0    0  501  502 -0.0000000000e+00 -0.0000000000e+00 -1.4319283047e+02 1.4319283047e+02 0.0000000000e+00 0.0000e+00 -1.0000e+00
       25  1    1    2    0    0 +0.0000000000e+00 +0.0000000000e+00 -1.1591318255e+02 1.7047247839e+02 1.2500000000e+02 0.0000e+00 0.0000e+00
<mgrwt>
<rscale>  0 0.12500000E+03</rscale>
<asrwt>0</asrwt>
<pdfrwt beam="1">  1       21 0.41968689E-02 0.12500000E+03</pdfrwt>
<pdfrwt beam="2">  1       21 0.22029666E-01 0.12500000E+03</pdfrwt>
<totfact> 0.68261670E+06</totfact>
</mgrwt>
<rwgt>
<wgt id='1'> +1.6693708e+01 </wgt>
<wgt id='2'> +0.0000000e+00 </wgt>
<wgt id='3'> +1.6693708e+01 </wgt>
<wgt id='4'> +1.5449409e+01 </wgt>
<wgt id='5'> +1.6693708e+01 </wgt>
<wgt id='6'> +1.7556000e+01 </wgt>
<wgt id='7'> +0.0000000e+00 </wgt>
<wgt id='8'> +1.7556000e+01 </wgt>
<wgt id='9'> +1.6693708e+01 </wgt>
<wgt id='10'> +1.7556000e+01 </wgt>
<wgt id='11'> +1.7975812e+01 </wgt>
<wgt id='12'> +0.0000000e+00 </wgt>
<wgt id='13'> +1.7975812e+01 </wgt>
<wgt id='14'> +1.7556000e+01 </wgt>
<wgt id='15'> +1.7975812e+01 </wgt>
<wgt id='16'> +1.6693708e+01 </wgt>
<wgt id='17'> +0.0000000e+00 </wgt>
<wgt id='18'> +1.6693708e+01 </wgt>
<wgt id='19'> +1.5449409e+01 </wgt>
<wgt id='20'> +1.6693708e+01 </wgt>
<wgt id='21'> +0.0000000e+00 </wgt>
<wgt id='22'> +1.7556000e+01 </wgt>
<wgt id='23'> +1.6693708e+01 </wgt>
<wgt id='24'> +1.7556000e+01 </wgt>
<wgt id='25'> +1.7975812e+01 </wgt>
<wgt id='26'> +0.0000000e+00 </wgt>
<wgt id='27'> +1.7975812e+01 </wgt>
<wgt id='28'> +1.7556000e+01 </wgt>
<wgt id='29'> +1.7975812e+01 </wgt>
<wgt id='30'> +1.6693708e+01 </wgt>
<wgt id='31'> +0.0000000e+00 </wgt>
<wgt id='32'> +1.6693708e+01 </wgt>
<wgt id='33'> +1.5449409e+01 </wgt>
<wgt id='34'> +1.6693708e+01 </wgt>
<wgt id='35'> +1.7556000e+01 </wgt>
<wgt id='36'> +0.0000000e+00 </wgt>
<wgt id='37'> +1.7556000e+01 </wgt>
<wgt id='38'> +1.6693708e+01 </wgt>
<wgt id='39'> +1.7556000e+01 </wgt>
<wgt id='40'> +1.7975812e+01 </wgt>
<wgt id='41'> +0.0000000e+00 </wgt>
<wgt id='42'> +1.7975812e+01 </wgt>
<wgt id='43'> +1.7556000e+01 </wgt>
<wgt id='44'> +1.7975812e+01 </wgt>
<wgt id='45'> +1.7556000e+01 </wgt>
<wgt id='46'> +1.7062262e+01 </wgt>
<wgt id='47'> +1.7536452e+01 </wgt>
<wgt id='48'> +1.7215750e+01 </wgt>
<wgt id='49'> +1.7612435e+01 </wgt>
<wgt id='50'> +1.8052836e+01 </wgt>
<wgt id='51'> +1.7294600e+01 </wgt>
<wgt id='52'> +1.7408311e+01 </wgt>
<wgt id='53'> +1.7940692e+01 </wgt>
<wgt id='54'> +1.7637932e+01 </wgt>
<wgt id='55'> +1.6541748e+01 </wgt>
<wgt id='56'> +1.7285157e+01 </wgt>
<wgt id='57'> +1.7347636e+01 </wgt>
<wgt id='58'> +1.8309424e+01 </wgt>
<wgt id='59'> +1.7054943e+01 </wgt>
<wgt id='60'> +1.6918406e+01 </wgt>
<wgt id='61'> +1.8043728e+01 </wgt>
<wgt id='62'> +1.7264474e+01 </wgt>
<wgt id='63'> +1.7617533e+01 </wgt>
<wgt id='64'> +1.7977328e+01 </wgt>
<wgt id='65'> +1.9303999e+01 </wgt>
<wgt id='66'> +1.7105504e+01 </wgt>
<wgt id='67'> +1.7664114e+01 </wgt>
<wgt id='68'> +1.7983797e+01 </wgt>
<wgt id='69'> +1.6359751e+01 </wgt>
<wgt id='70'> +1.7503728e+01 </wgt>
<wgt id='71'> +1.7795575e+01 </wgt>
<wgt id='72'> +1.8458011e+01 </wgt>
<wgt id='73'> +1.7752001e+01 </wgt>
<wgt id='74'> +1.7438288e+01 </wgt>
<wgt id='75'> +1.7641892e+01 </wgt>
<wgt id='76'> +1.7373137e+01 </wgt>
<wgt id='77'> +1.6840746e+01 </wgt>
<wgt id='78'> +1.8052509e+01 </wgt>
<wgt id='79'> +1.6852420e+01 </wgt>
<wgt id='80'> +1.7613356e+01 </wgt>
<wgt id='81'> +1.7578564e+01 </wgt>
<wgt id='82'> +1.8131274e+01 </wgt>
<wgt id='83'> +1.7304019e+01 </wgt>
<wgt id='84'> +1.8231104e+01 </wgt>
<wgt id='85'> +1.8126112e+01 </wgt>
<wgt id='86'> +1.7077585e+01 </wgt>
<wgt id='87'> +1.7397829e+01 </wgt>
<wgt id='88'> +1.7353686e+01 </wgt>
<wgt id='89'> +1.7677939e+01 </wgt>
<wgt id='90'> +1.7632885e+01 </wgt>
<wgt id='91'> +1.8459169e+01 </wgt>
<wgt id='92'> +1.7687860e+01 </wgt>
<wgt id='93'> +1.7086467e+01 </wgt>
<wgt id='94'> +1.7895532e+01 </wgt>
<wgt id='95'> +1.7396682e+01 </wgt>
<wgt id='96'> +1.7715567e+01 </wgt>
<wgt id='97'> +1.8008179e+01 </wgt>
<wgt id='98'> +1.6829406e+01 </wgt>
<wgt id='99'> +1.7474231e+01 </wgt>
<wgt id='100'> +1.8463664e+01 </wgt>
<wgt id='101'> +1.7292608e+01 </wgt>
<wgt id='102'> +1.6338815e+01 </wgt>
<wgt id='103'> +1.8218264e+01 </wgt>
<wgt id='104'> +1.7100659e+01 </wgt>
<wgt id='105'> +1.8546797e+01 </wgt>
<wgt id='106'> +1.7551932e+01 </wgt>
<wgt id='107'> +1.8380034e+01 </wgt>
<wgt id='108'> +1.7096652e+01 </wgt>
<wgt id='109'> +1.7419557e+01 </wgt>
<wgt id='110'> +1.7886807e+01 </wgt>
<wgt id='111'> +1.7510501e+01 </wgt>
<wgt id='112'> +1.7448970e+01 </wgt>
<wgt id='113'> +1.7027010e+01 </wgt>
<wgt id='114'> +1.8420782e+01 </wgt>
<wgt id='115'> +1.8142558e+01 </wgt>
<wgt id='116'> +1.6729508e+01 </wgt>
<wgt id='117'> +1.7900630e+01 </wgt>
<wgt id='118'> +1.7193603e+01 </wgt>
<wgt id='119'> +1.7441208e+01 </wgt>
<wgt id='120'> +1.7828866e+01 </wgt>
<wgt id='121'> +1.7641496e+01 </wgt>
<wgt id='122'> +1.7519082e+01 </wgt>
<wgt id='123'> +1.7358761e+01 </wgt>
<wgt id='124'> +1.7574380e+01 </wgt>
<wgt id='125'> +1.7769291e+01 </wgt>
<wgt id='126'> +1.7687787e+01 </wgt>
<wgt id='127'> +1.7650928e+01 </wgt>
<wgt id='128'> +1.6881547e+01 </wgt>
<wgt id='129'> +1.8990440e+01 </wgt>
<wgt id='130'> +1.7163154e+01 </wgt>
<wgt id='131'> +1.8472204e+01 </wgt>
<wgt id='132'> +1.7160145e+01 </wgt>
<wgt id='133'> +1.6952527e+01 </wgt>
<wgt id='134'> +1.6810052e+01 </wgt>
<wgt id='135'> +1.7904102e+01 </wgt>
<wgt id='136'> +1.6873890e+01 </wgt>
<wgt id='137'> +1.6443135e+01 </wgt>
<wgt id='138'> +1.5462817e+01 </wgt>
<wgt id='139'> +1.7612380e+01 </wgt>
<wgt id='140'> +1.8649647e+01 </wgt>
<wgt id='141'> +1.7281728e+01 </wgt>
<wgt id='142'> +1.8316467e+01 </wgt>
<wgt id='143'> +1.7336767e+01 </wgt>
<wgt id='144'> +1.8072488e+01 </wgt>
<wgt id='145'> +1.7494302e+01 </wgt>
</rwgt>
</event>
<event>
 3      1 +1.7556000e+01 1.25000000e+02 7.54677100e-03 1.23506900e-01
       21 -1    0    0  502  501 +0.0000000000e+00 +0.0000000000e+00 +1.5830648332e+01 1.5830648332e+01 0.0000000000e+00 0.0000e+00 1.0000e+00
       21 -1    0    0  501  502 -0.0000000000e+00 -0.0000000000e+00 -2.4675237034e+02 2.4675237034e+02 0.0000000000e+00 0.0000e+00 1.0000e+00
       25  1    1    2    0    0 +0.0000000000e+00 +0.0000000000e+00 -2.3092172201e+02 2.6258301867e+02 1.2500000000e+02 0.0000e+00 0.0000e+00
<mgrwt>
<rscale>  0 0.12500000E+03</rscale>
<asrwt>0</asrwt>
<pdfrwt beam="1">  1       21 0.24354847E-02 0.12500000E+03</pdfrwt>
<pdfrwt beam="2">  1       21 0.37961898E-01 0.12500000E+03</pdfrwt>
<totfact> 0.58713332E+06</totfact>
</mgrwt>
<rwgt>
<wgt id='1'> +1.6777326e+01 </wgt>
<wgt id='2'> +0.0000000e+00 </wgt>
<wgt id='3'> +1.6777326e+01 </wgt>
<wgt id='4'> +1.5617464e+01 </wgt>
<wgt id='5'> +1.6777326e+01 </wgt>
<wgt id='6'> +1.7556000e+01 </wgt>
<wgt id='7'> +0.0000000e+00 </wgt>
<wgt id='8'> +1.7556000e+01 </wgt>
<wgt id='9'> +1.6777326e+01 </wgt>
<wgt id='10'> +1.7556000e+01 </wgt>
<wgt id='11'> +1.7897384e+01 </wgt>
<wgt id='12'> +0.0000000e+00 </wgt>
<wgt id='13'> +1.7897384e+01 </wgt>
<wgt id='14'> +1.7556000e+01 </wgt>
<wgt id='15'> +1.7897384e+01 </wgt>
<wgt id='16'> +1.6777326e+01 </wgt>
<wgt id='17'> +0.0000000e+00 </wgt>
<wgt id='18'> +1.6777326e+01 </wgt>
<wgt id='19'> +1.5617464e+01 </wgt>
<wgt id='20'> +1.6777326e+01 </wgt>
<wgt id='21'> +0.0000000e+00 </wgt>
<wgt id='22'> +1.7556000e+01 </wgt>
<wgt id='23'> +1.6777326e+01 </wgt>
<wgt id='24'> +1.7556000e+01 </wgt>
<wgt id='25'> +1.7897384e+01 </wgt>
<wgt id='26'> +0.0000000e+00 </wgt>
<wgt id='27'> +1.7897384e+01 </wgt>
<wgt id='28'> +1.7556000e+01 </wgt>
<wgt id='29'> +1.7897384e+01 </wgt>
<wgt id='30'> +1.6777326e+01 </wgt>
<wgt id='31'> +0.0000000e+00 </wgt>
<wgt id='32'> +1.6777326e+01 </wgt>
<wgt id='33'> +1.5617464e+01 </wgt>
<wgt id='34'> +1.6777326e+01 </wgt>
<wgt id='35'> +1.7556000e+01 </wgt>
<wgt id='36'> +0.0000000e+00 </wgt>
<wgt id='37'> +1.7556000e+01 </wgt>
<wgt id='38'> +1.6777326e+01 </wgt>
<wgt id='39'> +1.7556000e+01 </wgt>
<wgt id='40'> +1.7897384e+01 </wgt>
<wgt id='41'> +0.0000000e+00 </wgt>
<wgt id='42'> +1.7897384e+01 </wgt>
<wgt id='43'> +1.7556000e+01 </wgt>
<wgt id='44'> +1.7897384e+01 </wgt>
<wgt id='45'> +1.7556000e+01 </wgt>
<wgt id='46'> +1.7265005e+01 </wgt>
<wgt id='47'> +1.7610017e+01 </wgt>
<wgt id='48'> +1.7367999e+01 </wgt>
<wgt id='49'> +1.7690655e+01 </wgt>
<wgt id='50'> +1.8442602e+01 </wgt>
<wgt id='51'> +1.7334329e+01 </wgt>
<wgt id='52'> +1.7478712e+01 </wgt>
<wgt id='53'> +1.7747898e+01 </wgt>
<wgt id='54'> +1.7618803e+01 </wgt>
<wgt id='55'> +1.6435603e+01 </wgt>
<wgt id='56'> +1.7110462e+01 </wgt>
<wgt id='57'> +1.7274775e+01 </wgt>
<wgt id='58'> +1.8180335e+01 </wgt>
<wgt id='59'> +1.7220481e+01 </wgt>
<wgt id='60'> +1.7211911e+01 </wgt>
<wgt id='61'> +1.7744058e+01 </wgt>
<wgt id='62'> +1.7362234e+01 </wgt>
<wgt id='63'> +1.7643470e+01 </wgt>
<wgt id='64'> +1.7827775e+01 </wgt>
<wgt id='65'> +1.9230087e+01 </wgt>
<wgt id='66'> +1.7117658e+01 </wgt>
<wgt id='67'> +1.7627356e+01 </wgt>
<wgt id='68'> +1.8119029e+01 </wgt>
<wgt id='69'> +1.6565924e+01 </wgt>
<wgt id='70'> +1.7422200e+01 </wgt>
<wgt id='71'> +1.7720242e+01 </wgt>
<wgt id='72'> +1.8019823e+01 </wgt>
<wgt id='73'> +1.7740847e+01 </wgt>
<wgt id='74'> +1.7654689e+01 </wgt>
<wgt id='75'> +1.7729772e+01 </wgt>
<wgt id='76'> +1.7239604e+01 </wgt>
<wgt id='77'> +1.7009274e+01 </wgt>
<wgt id='78'> +1.7870841e+01 </wgt>
<wgt id='79'> +1.7014603e+01 </wgt>
<wgt id='80'> +1.7514792e+01 </wgt>
<wgt id='81'> +1.7458959e+01 </wgt>
<wgt id='82'> +1.8058531e+01 </wgt>
<wgt id='83'> +1.7380796e+01 </wgt>
<wgt id='84'> +1.8261560e+01 </wgt>
<wgt id='85'> +1.8227552e+01 </wgt>
<wgt id='86'> +1.7205351e+01 </wgt>
<wgt id='87'> +1.7498191e+01 </wgt>
<wgt id='88'> +1.7362422e+01 </wgt>
<wgt id='89'> +1.7889180e+01 </wgt>
<wgt id='90'> +1.7732119e+01 </wgt>
<wgt id='91'> +1.8421429e+01 </wgt>
<wgt id='92'> +1.7161937e+01 </wgt>
<wgt id='93'> +1.7267824e+01 </wgt>
<wgt id='94'> +1.7761315e+01 </wgt>
<wgt id='95'> +1.7222968e+01 </wgt>
<wgt id='96'> +1.8006683e+01 </wgt>
<wgt id='97'> +1.7894051e+01 </wgt>
<wgt id='98'> +1.6825254e+01 </wgt>
<wgt id='99'> +1.7516484e+01 </wgt>
<wgt id='100'> +1.8178022e+01 </wgt>
<wgt id='101'> +1.7650879e+01 </wgt>
<wgt id='102'> +1.6655723e+01 </wgt>
<wgt id='103'> +1.8427987e+01 </wgt>
<wgt id='104'> +1.7151846e+01 </wgt>
<wgt id='105'> +1.8336926e+01 </wgt>
<wgt id='106'> +1.7159579e+01 </wgt>
<wgt id='107'> +1.8031896e+01 </wgt>
<wgt id='108'> +1.6713302e+01 </wgt>
<wgt id='109'> +1.7210606e+01 </wgt>
<wgt id='110'> +1.7872032e+01 </wgt>
<wgt id='111'> +1.7343068e+01 </wgt>
<wgt id='112'> +1.7252143e+01 </wgt>
<wgt id='113'> +1.6873137e+01 </wgt>
<wgt id='114'> +1.8043679e+01 </wgt>
<wgt id='115'> +1.7773390e+01 </wgt>
<wgt id='116'> +1.7022254e+01 </wgt>
<wgt id='117'> +1.7793666e+01 </wgt>
<wgt id='118'> +1.7497986e+01 </wgt>
<wgt id='119'> +1.7309062e+01 </wgt>
<wgt id='120'> +1.7623485e+01 </wgt>
<wgt id='121'> +1.7540895e+01 </wgt>
<wgt id='122'> +1.7473471e+01 </wgt>
<wgt id='123'> +1.7445393e+01 </wgt>
<wgt id='124'> +1.7855871e+01 </wgt>
<wgt id='125'> +1.8022850e+01 </wgt>
<wgt id='126'> +1.7856093e+01 </wgt>
<wgt id='127'> +1.7803743e+01 </wgt>
<wgt id='128'> +1.6672696e+01 </wgt>
<wgt id='129'> +1.9036017e+01 </wgt>
<wgt id='130'> +1.7184072e+01 </wgt>
<wgt id='131'> +1.8478974e+01 </wgt>
<wgt id='132'> +1.7300409e+01 </wgt>
<wgt id='133'> +1.7179687e+01 </wgt>
<wgt id='134'> +1.6811279e+01 </wgt>
<wgt id='135'> +1.7940781e+01 </wgt>
<wgt id='136'> +1.6965726e+01 </wgt>
<wgt id='137'> +1.6504333e+01 </wgt>
<wgt id='138'> +1.5727882e+01 </wgt>
<wgt id='139'> +1.7780787e+01 </wgt>
<wgt id='140'> +1.8538302e+01 </wgt>
<wgt id='141'> +1.7285567e+01 </wgt>
<wgt id='142'> +1.8144861e+01 </wgt>
<wgt id='143'> +1.7410383e+01 </wgt>
<wgt id='144'> +1.7907277e+01 </wgt>
<wgt id='145'> +1.7474252e+01 </wgt>
</rwgt>
</event>
<event>
 3      1 +1.7556000e+01 1.25000000e+02 7.54677100e-03 1.23506900e-01
       21 -1    0    0  502  501 +0.0000000000e+00 +0.0000000000e+00 +5.1004712483e+00 5.1004712483e+00 0.0000000000e+00 0.0000e+00 1.0000e+00
       21 -1    0    0  501  502 -0.0000000000e+00 -0.0000000000e+00 -7.6586060579e+02 7.6586060579e+02 0.0000000000e+00 0.0000e+00 1.0000e+00
       25  1    1    2    0    0 +0.0000000000e+00 +0.0000000000e+00 -7.6076013454e+02 7.7096107704e+02 1.2500000000e+02 0.0000e+00 0.0000e+00
<mgrwt>
<rscale>  0 0.12500000E+03</rscale>
<asrwt>0</asrwt>
<pdfrwt beam="1">  1       21 0.78468793E-03 0.12500000E+03</pdfrwt>
<pdfrwt beam="2">  1       21 0.11782470E+00 0.12500000E+03</pdfrwt>
<totfact> 0.30344956E+06</totfact>
</mgrwt>
<rwgt>
<wgt id='1'> +1.7182266e+01 </wgt>
<wgt id='2'> +0.0000000e+00 </wgt>
<wgt id='3'> +1.7182266e+01 </wgt>
<wgt id='4'> +1.6422214e+01 </wgt>
<wgt id='5'> +1.7182266e+01 </wgt>
<wgt id='6'> +1.7556000e+01 </wgt>
<wgt id='7'> +0.0000000e+00 </wgt>
<wgt id='8'> +1.7556000e+01 </wgt>
<wgt id='9'> +1.7182266e+01 </wgt>
<wgt id='10'> +1.7556000e+01 </wgt>
<wgt id='11'> +1.7513121e+01 </wgt>
<wgt id='12'> +0.0000000e+00 </wgt>
<wgt id='13'> +1.7513121e+01 </wgt>
<wgt id='14'> +1.7556000e+01 </wgt>
<wgt id='15'> +1.7513121e+01 </wgt>
<wgt id='16'> +1.7182266e+01 </wgt>
<wgt id='17'> +0.0000000e+00 </wgt>
<wgt id='18'> +1.7182266e+01 </wgt>
<wgt id='19'> +1.6422214e+01 </wgt>
<wgt id='20'> +1.7182266e+01 </wgt>
<wgt id='21'> +0.0000000e+00 </wgt>
<wgt id='22'> +1.7556000e+01 </wgt>
<wgt id='23'> +1.7182266e+01 </wgt>
<wgt id='24'> +1.7556000e+01 </wgt>
<wgt id='25'> +1.7513121e+01 </wgt>
<wgt id='26'> +0.0000000e+00 </wgt>
<wgt id='27'> +1.7513121e+01 </wgt>
<wgt id='28'> +1.7556000e+01 </wgt>
<wgt id='29'> +1.7513121e+01 </wgt>
<wgt id='30'> +1.7182266e+01 </wgt>
<wgt id='31'> +0.0000000e+00 </wgt>
<wgt id='32'> +1.7182266e+01 </wgt>
<wgt id='33'> +1.6422214e+01 </wgt>
<wgt id='34'> +1.7182266e+01 </wgt>
<wgt id='35'> +1.7556000e+01 </wgt>
<wgt id='36'> +0.0000000e+00 </wgt>
<wgt id='37'> +1.7556000e+01 </wgt>
<wgt id='38'> +1.7182266e+01 </wgt>
<wgt id='39'> +1.7556000e+01 </wgt>
<wgt id='40'> +1.7513121e+01 </wgt>
<wgt id='41'> +0.0000000e+00 </wgt>
<wgt id='42'> +1.7513121e+01 </wgt>
<wgt id='43'> +1.7556000e+01 </wgt>
<wgt id='44'> +1.7513121e+01 </wgt>
<wgt id='45'> +1.7556000e+01 </wgt>
<wgt id='46'> +1.8021219e+01 </wgt>
<wgt id='47'> +1.7577685e+01 </wgt>
<wgt id='48'> +1.7686890e+01 </wgt>
<wgt id='49'> +1.7438513e+01 </wgt>
<wgt id='50'> +1.9505452e+01 </wgt>
<wgt id='51'> +1.7194765e+01 </wgt>
<wgt id='52'> +1.7639570e+01 </wgt>
<wgt id='53'> +1.6974792e+01 </wgt>
<wgt id='54'> +1.7902109e+01 </wgt>
<wgt id='55'> +1.7719041e+01 </wgt>
<wgt id='56'> +1.6513223e+01 </wgt>
<wgt id='57'> +1.7934729e+01 </wgt>
<wgt id='58'> +1.7196749e+01 </wgt>
<wgt id='59'> +1.8654960e+01 </wgt>
<wgt id='60'> +1.8452150e+01 </wgt>
<wgt id='61'> +1.5226915e+01 </wgt>
<wgt id='62'> +1.7296024e+01 </wgt>
<wgt id='63'> +1.7842723e+01 </wgt>
<wgt id='64'> +1.7484754e+01 </wgt>
<wgt id='65'> +1.7883011e+01 </wgt>
<wgt id='66'> +1.7244914e+01 </wgt>
<wgt id='67'> +1.7426296e+01 </wgt>
<wgt id='68'> +1.8954904e+01 </wgt>
<wgt id='69'> +1.7521935e+01 </wgt>
<wgt id='70'> +1.7436964e+01 </wgt>
<wgt id='71'> +1.7223516e+01 </wgt>
<wgt id='72'> +1.7071849e+01 </wgt>
<wgt id='73'> +1.7190899e+01 </wgt>
<wgt id='74'> +1.8725538e+01 </wgt>
<wgt id='75'> +1.8105919e+01 </wgt>
<wgt id='76'> +1.7485162e+01 </wgt>
<wgt id='77'> +1.7574429e+01 </wgt>
<wgt id='78'> +1.6511128e+01 </wgt>
<wgt id='79'> +1.8038932e+01 </wgt>
<wgt id='80'> +1.6780307e+01 </wgt>
<wgt id='81'> +1.7261593e+01 </wgt>
<wgt id='82'> +1.6960886e+01 </wgt>
<wgt id='83'> +1.7281412e+01 </wgt>
<wgt id='84'> +1.7608134e+01 </wgt>
<wgt id='85'> +1.7499747e+01 </wgt>
<wgt id='86'> +1.7721622e+01 </wgt>
<wgt id='87'> +1.7775921e+01 </wgt>
<wgt id='88'> +1.6986039e+01 </wgt>
<wgt id='89'> +1.7774156e+01 </wgt>
<wgt id='90'> +1.7906354e+01 </wgt>
<wgt id='91'> +1.7217430e+01 </wgt>
<wgt id='92'> +1.6339388e+01 </wgt>
<wgt id='93'> +1.7862720e+01 </wgt>
<wgt id='94'> +1.6992338e+01 </wgt>
<wgt id='95'> +1.7725398e+01 </wgt>
<wgt id='96'> +1.8238816e+01 </wgt>
<wgt id='97'> +1.7049369e+01 </wgt>
<wgt id='98'> +1.7549589e+01 </wgt>
<wgt id='99'> +1.6876074e+01 </wgt>
<wgt id='100'> +1.6061568e+01 </wgt>
<wgt id='101'> +1.9399161e+01 </wgt>
<wgt id='102'> +1.8567021e+01 </wgt>
<wgt id='103'> +1.8324470e+01 </wgt>
<wgt id='104'> +1.7536529e+01 </wgt>
<wgt id='105'> +1.7806984e+01 </wgt>
<wgt id='106'> +1.6504691e+01 </wgt>
<wgt id='107'> +1.6759973e+01 </wgt>
<wgt id='108'> +1.5933203e+01 </wgt>
<wgt id='109'> +1.7087970e+01 </wgt>
<wgt id='110'> +1.7477413e+01 </wgt>
<wgt id='111'> +1.7107706e+01 </wgt>
<wgt id='112'> +1.7034449e+01 </wgt>
<wgt id='113'> +1.7101687e+01 </wgt>
<wgt id='114'> +1.7317692e+01 </wgt>
<wgt id='115'> +1.6199219e+01 </wgt>
<wgt id='116'> +1.8326832e+01 </wgt>
<wgt id='117'> +1.7148443e+01 </wgt>
<wgt id='118'> +1.8517058e+01 </wgt>
<wgt id='119'> +1.7686915e+01 </wgt>
<wgt id='120'> +1.7120202e+01 </wgt>
<wgt id='121'> +1.7665926e+01 </wgt>
<wgt id='122'> +1.7451767e+01 </wgt>
<wgt id='123'> +1.7398971e+01 </wgt>
<wgt id='124'> +1.9095570e+01 </wgt>
<wgt id='125'> +1.9587317e+01 </wgt>
<wgt id='126'> +1.7793394e+01 </wgt>
<wgt id='127'> +1.7862458e+01 </wgt>
<wgt id='128'> +1.6067047e+01 </wgt>
<wgt id='129'> +1.8649202e+01 </wgt>
<wgt id='130'> +1.6726006e+01 </wgt>
<wgt id='131'> +1.7620992e+01 </wgt>
<wgt id='132'> +1.8827188e+01 </wgt>
<wgt id='133'> +1.8426532e+01 </wgt>
<wgt id='134'> +1.7567458e+01 </wgt>
<wgt id='135'> +1.7657656e+01 </wgt>
<wgt id='136'> +1.8998365e+01 </wgt>
<wgt id='137'> +1.7081691e+01 </wgt>
<wgt id='138'> +1.7050496e+01 </wgt>
<wgt id='139'> +1.8299163e+01 </wgt>
<wgt id='140'> +1.7609338e+01 </wgt>
<wgt id='141'> +1.7811826e+01 </wgt>
<wgt id='142'> +1.6112958e+01 </wgt>
<wgt id='143'> +1.8044243e+01 </wgt>
<wgt id='144'> +1.7038217e+01 </wgt>
<wgt id='145'> +1.7047123e+01 </wgt>
</rwgt>
</event>
<event>
 3      1 +1.7556000e+01 1.25000000e+02 7.54677100e-03 1.23506900e-01
       21 -1    0    0  502  501 +0.0000000000e+00 +0.0000000000e+00 +4.1985186550e+00 4.1985186550e+00 0.0000000000e+00 0.0000e+00 1.0000e+00
       21 -1    0    0  501  502 -0.0000000000e+00 -0.0000000000e+00 -9.3038767266e+02 9.3038767266e+02 0.0000000000e+00 0.0000e+00 1.0000e+00
       25  1    1    2    0    0 +0.0000000000e+00 +0.0000000000e+00 -9.2618915400e+02 9.3458619131e+02 1.2500000000e+02 0.0000e+00 0.0000e+00
<mgrwt>
<rscale>  0 0.12500000E+03</rscale>
<asrwt>0</asrwt>
<pdfrwt beam="1">  1       21 0.64592576E-03 0.12500000E+03</pdfrwt>
<pdfrwt beam="2">  1       21 0.14313661E+00 0.12500000E+03</pdfrwt>
<totfact> 0.25328675E+06</totfact>
</mgrwt>
<rwgt>
<wgt id='1'> +1.7331357e+01 </wgt>
<wgt id='2'> +0.0000000e+00 </wgt>
<wgt id='3'> +1.7331357e+01 </wgt>
<wgt id='4'> +1.6720562e+01 </wgt>
<wgt id='5'> +1.7331357e+01 </wgt>
<wgt id='6'> +1.7556000e+01 </wgt>
<wgt id='7'> +0.0000000e+00 </wgt>
<wgt id='8'> +1.7556000e+01 </wgt>
<wgt id='9'> +1.7331357e+01 </wgt>
<wgt id='10'> +1.7556000e+01 </wgt>
<wgt id='11'> +1.7374683e+01 </wgt>
<wgt id='12'> +0.0000000e+00 </wgt>
<wgt id='13'> +1.7374683e+01 </wgt>
<wgt id='14'> +1.7556000e+01 </wgt>
<wgt id='15'> +1.7374683e+01 </wgt>
<wgt id='16'> +1.7331357e+01 </wgt>
<wgt id='17'> +0.0000000e+00 </wgt>
<wgt id='18'> +1.7331357e+01 </wgt>
<wgt id='19'> +1.6720562e+01 </wgt>
<wgt id='20'> +1.7331357e+01 </wgt>
<wgt id='21'> +0.0000000e+00 </wgt>
<wgt id='22'> +1.7556000e+01 </wgt>
<wgt id='23'> +1.7331357e+01 </wgt>
<wgt id='24'> +1.7556000e+01 </wgt>
<wgt id='25'> +1.7374683e+01 </wgt>
<wgt id='26'> +0.0000000e+00 </wgt>
<wgt id='27'> +1.7374683e+01 </wgt>
<wgt id='28'> +1.7556000e+01 </wgt>
<wgt id='29'> +1.7374683e+01 </wgt>
<wgt id='30'> +1.7331357e+01 </wgt>
<wgt id='31'> +0.0000000e+00 </wgt>
<wgt id='32'> +1.7331357e+01 </wgt>
<wgt id='33'> +1.6720562e+01 </wgt>
<wgt id='34'> +1.7331357e+01 </wgt>
<wgt id='35'> +1.7556000e+01 </wgt>
<wgt id='36'> +0.0000000e+00 </wgt>
<wgt id='37'> +1.7556000e+01 </wgt>
<wgt id='38'> +1.7331357e+01 </wgt>
<wgt id='39'> +1.7556000e+01 </wgt>
<wgt id='40'> +1.7374683e+01 </wgt>
<wgt id='41'> +0.0000000e+00 </wgt>
<wgt id='42'> +1.7374683e+01 </wgt>
<wgt id='43'> +1.7556000e+01 </wgt>
<wgt id='44'> +1.7374683e+01 </wgt>
<wgt id='45'> +1.7556000e+01 </wgt>
<wgt id='46'> +1.8116954e+01 </wgt>
<wgt id='47'> +1.7536474e+01 </wgt>
<wgt id='48'> +1.7679261e+01 </wgt>
<wgt id='49'> +1.7185509e+01 </wgt>
<wgt id='50'> +1.9565371e+01 </wgt>
<wgt id='51'> +1.7037129e+01 </wgt>
<wgt id='52'> +1.7466979e+01 </wgt>
<wgt id='53'> +1.6937798e+01 </wgt>
<wgt id='54'> +1.8118933e+01 </wgt>
<wgt id='55'> +1.8472614e+01 </wgt>
<wgt id='56'> +1.6605437e+01 </wgt>
<wgt id='57'> +1.8239845e+01 </wgt>
<wgt id='58'> +1.6818024e+01 </wgt>
<wgt id='59'> +1.9003031e+01 </wgt>
<wgt id='60'> +1.8567685e+01 </wgt>
<wgt id='61'> +1.5380318e+01 </wgt>
<wgt id='62'> +1.7078932e+01 </wgt>
<wgt id='63'> +1.8037986e+01 </wgt>
<wgt id='64'> +1.7556710e+01 </wgt>
<wgt id='65'> +1.7210508e+01 </wgt>
<wgt id='66'> +1.7333568e+01 </wgt>
<wgt id='67'> +1.7385599e+01 </wgt>
<wgt id='68'> +1.9341057e+01 </wgt>
<wgt id='69'> +1.7877294e+01 </wgt>
<wgt id='70'> +1.7682743e+01 </wgt>
<wgt id='71'> +1.6903704e+01 </wgt>
<wgt id='72'> +1.6862966e+01 </wgt>
<wgt id='73'> +1.6880733e+01 </wgt>
<wgt id='74'> +1.9111739e+01 </wgt>
<wgt id='75'> +1.8347752e+01 </wgt>
<wgt id='76'> +1.7682668e+01 </wgt>
<wgt id='77'> +1.7516123e+01 </wgt>
<wgt id='78'> +1.6046648e+01 </wgt>
<wgt id='79'> +1.8411163e+01 </wgt>
<wgt id='80'> +1.6413902e+01 </wgt>
<wgt id='81'> +1.7390142e+01 </wgt>
<wgt id='82'> +1.6762350e+01 </wgt>
<wgt id='83'> +1.7167695e+01 </wgt>
<wgt id='84'> +1.7221239e+01 </wgt>
<wgt id='85'> +1.7029700e+01 </wgt>
<wgt id='86'> +1.7901500e+01 </wgt>
<wgt id='87'> +1.7743390e+01 </wgt>
<wgt id='88'> +1.6792071e+01 </wgt>
<wgt id='89'> +1.7236487e+01 </wgt>
<wgt id='90'> +1.7630709e+01 </wgt>
<wgt id='91'> +1.6570567e+01 </wgt>
<wgt id='92'> +1.6359333e+01 </wgt>
<wgt id='93'> +1.7954987e+01 </wgt>
<wgt id='94'> +1.6714618e+01 </wgt>
<wgt id='95'> +1.8053261e+01 </wgt>
<wgt id='96'> +1.8167802e+01 </wgt>
<wgt id='97'> +1.6691741e+01 </wgt>
<wgt id='98'> +1.7928314e+01 </wgt>
<wgt id='99'> +1.6410385e+01 </wgt>
<wgt id='100'> +1.5236612e+01 </wgt>
<wgt id='101'> +1.9794504e+01 </wgt>
<wgt id='102'> +1.9114741e+01 </wgt>
<wgt id='103'> +1.7905782e+01 </wgt>
<wgt id='104'> +1.7771697e+01 </wgt>
<wgt id='105'> +1.7731905e+01 </wgt>
<wgt id='106'> +1.6647930e+01 </wgt>
<wgt id='107'> +1.6645956e+01 </wgt>
<wgt id='108'> +1.6049506e+01 </wgt>
<wgt id='109'> +1.7274900e+01 </wgt>
<wgt id='110'> +1.7198031e+01 </wgt>
<wgt id='111'> +1.7111079e+01 </wgt>
<wgt id='112'> +1.7400223e+01 </wgt>
<wgt id='113'> +1.7530654e+01 </wgt>
<wgt id='114'> +1.7513875e+01 </wgt>
<wgt id='115'> +1.5963549e+01 </wgt>
<wgt id='116'> +1.8672324e+01 </wgt>
<wgt id='117'> +1.7045752e+01 </wgt>
<wgt id='118'> +1.8587551e+01 </wgt>
<wgt id='119'> +1.8160413e+01 </wgt>
<wgt id='120'> +1.7252782e+01 </wgt>
<wgt id='121'> +1.7750466e+01 </wgt>
<wgt id='122'> +1.7429803e+01 </wgt>
<wgt id='123'> +1.7239519e+01 </wgt>
<wgt id='124'> +1.9314367e+01 </wgt>
<wgt id='125'> +2.0198890e+01 </wgt>
<wgt id='126'> +1.7594486e+01 </wgt>
<wgt id='127'> +1.7635552e+01 </wgt>
<wgt id='128'> +1.6200308e+01 </wgt>
<wgt id='129'> +1.8298159e+01 </wgt>
<wgt id='130'> +1.6475448e+01 </wgt>
<wgt id='131'> +1.7104527e+01 </wgt>
<wgt id='132'> +1.9161550e+01 </wgt>
<wgt id='133'> +1.8790951e+01 </wgt>
<wgt id='134'> +1.7896873e+01 </wgt>
<wgt id='135'> +1.7425472e+01 </wgt>
<wgt id='136'> +1.9774510e+01 </wgt>
<wgt id='137'> +1.7396594e+01 </wgt>
<wgt id='138'> +1.7490481e+01 </wgt>
<wgt id='139'> +1.8348123e+01 </wgt>
<wgt id='140'> +1.7339401e+01 </wgt>
<wgt id='141'> +1.8217946e+01 </wgt>
<wgt id='142'> +1.5069086e+01 </wgt>
<wgt id='143'> +1.8115673e+01 </wgt>
<wgt id='144'> +1.6693688e+01 </wgt>
<wgt id='145'> +1.6722603e+01 </wgt>
</rwgt>
</event>
<event>
 3      1 +1.7556000e+01 1.25000000e+02 7.54677100e-03 1.23506900e-01
       21 -1    0    0  502  501 +0.0000000000e+00 +0.0000000000e+00 +2.6004007665e+01 2.6004007665e+01 0.0000000000e+00 0.0000e+00 -1.0000e+00
       21 -1    0    0  501  502 -0.0000000000e+00 -0.0000000000e+00 -1.5021722999e+02 1.5021722999e+02 0.0000000000e+00 0.0000e+00 -1.0000e+00
       25  1    1    2    0    0 +0.0000000000e+00 +0.0000000000e+00 -1.2421322232e+02 1.7622123765e+02 1.2500000000e+02 0.0000e+00 0.0000e+00
<mgrwt>
<rscale>  0 0.12500000E+03</rscale>
<asrwt>0</asrwt>
<pdfrwt beam="1">  1       21 0.40006166E-02 0.12500000E+03</pdfrwt>
<pdfrwt beam="2">  1       21 0.23110343E-01 0.12500000E+03</pdfrwt>
<totfact> 0.67587690E+06</totfact>
</mgrwt>
<rwgt>
<wgt id='1'> +1.6698709e+01 </wgt>
<wgt id='2'> +0.0000000e+00 </wgt>
<wgt id='3'> +1.6698709e+01 </wgt>
<wgt id='4'> +1.5459553e+01 </wgt>
<wgt id='5'> +1.6698709e+01 </wgt>
<wgt id='6'> +1.7556000e+01 </wgt>
<wgt id='7'> +0.0000000e+00 </wgt>
<wgt id='8'> +1.7556000e+01 </wgt>
<wgt id='9'> +1.6698709e+01 </wgt>
<wgt id='10'> +1.7556000e+01 </wgt>
<wgt id='11'> +1.7971191e+01 </wgt>
<wgt id='12'> +0.0000000e+00 </wgt>
<wgt id='13'> +1.7971191e+01 </wgt>
<wgt id='14'> +1.7556000e+01 </wgt>
<wgt id='15'> +1.7971191e+01 </wgt>
<wgt id='16'> +1.6698709e+01 </wgt>
<wgt id='17'> +0.0000000e+00 </wgt>
<wgt id='18'> +1.6698709e+01 </wgt>
<wgt id='19'> +1.5459553e+01 </wgt>
<wgt id='20'> +1.6698709e+01 </wgt>
<wgt id='21'> +0.0000000e+00 </wgt>
<wgt id='22'> +1.7556000e+01 </wgt>
<wgt id='23'> +1.6698709e+01 </wgt>
<wgt id='24'> +1.7556000e+01 </wgt>
<wgt id='25'> +1.7971191e+01 </wgt>
<wgt id='26'> +0.0000000e+00 </wgt>
<wgt id='27'> +1.7971191e+01 </wgt>
<wgt id='28'> +1.7556000e+01 </wgt>
<wgt id='29'> +1.7971191e+01 </wgt>
<wgt id='30'> +1.6698709e+01 </wgt>
<wgt id='31'> +0.0000000e+00 </wgt>
<wgt id='32'> +1.6698709e+01 </wgt>
<wgt id='33'> +1.5459553e+01 </wgt>
<wgt id='34'> +1.6698709e+01 </wgt>
<wgt id='35'> +1.7556000e+01 </wgt>
<wgt id='36'> +0.0000000e+00 </wgt>
<wgt id='37'> +1.7556000e+01 </wgt>
<wgt id='38'> +1.6698709e+01 </wgt>
<wgt id='39'> +1.7556000e+01 </wgt>
<wgt id='40'> +1.7971191e+01 </wgt>
<wgt id='41'> +0.0000000e+00 </wgt>
<wgt id='42'> +1.7971191e+01 </wgt>
<wgt id='43'> +1.7556000e+01 </wgt>
<wgt id='44'> +1.7971191e+01 </wgt>
<wgt id='45'> +1.7556000e+01 </wgt>
<wgt id='46'> +1.7075374e+01 </wgt>
<wgt id='47'> +1.7541936e+01 </wgt>
<wgt id='48'> +1.7226334e+01 </wgt>
<wgt id='49'> +1.7618863e+01 </wgt>
<wgt id='50'> +1.8078972e+01 </wgt>
<wgt id='51'> +1.7297598e+01 </wgt>
<wgt id='52'> +1.7411672e+01 </wgt>
<wgt id='53'> +1.7929050e+01 </wgt>
<wgt id='54'> +1.7636925e+01 </wgt>
<wgt id='55'> +1.6530784e+01 </wgt>
<wgt id='56'> +1.7274769e+01 </wgt>
<wgt id='57'> +1.7340168e+01 </wgt>
<wgt id='58'> +1.8301795e+01 </wgt>
<wgt id='59'> +1.7062591e+01 </wgt>
<wgt id='60'> +1.6936454e+01 </wgt>
<wgt id='61'> +1.8028574e+01 </wgt>
<wgt id='62'> +1.7271663e+01 </wgt>
<wgt id='63'> +1.7619804e+01 </wgt>
<wgt id='64'> +1.7969088e+01 </wgt>
<wgt id='65'> +1.9300841e+01 </wgt>
<wgt id='66'> +1.7106148e+01 </wgt>
<wgt id='67'> +1.7661520e+01 </wgt>
<wgt id='68'> +1.7991981e+01 </wgt>
<wgt id='69'> +1.6373418e+01 </wgt>
<wgt id='70'> +1.7497968e+01 </wgt>
<wgt id='71'> +1.7789362e+01 </wgt>
<wgt id='72'> +1.8426065e+01 </wgt>
<wgt id='73'> +1.7752201e+01 </wgt>
<wgt id='74'> +1.7452331e+01 </wgt>
<wgt id='75'> +1.7648301e+01 </wgt>
<wgt id='76'> +1.7361694e+01 </wgt>
<wgt id='77'> +1.6851157e+01 </wgt>
<wgt id='78'> +1.8042553e+01 </wgt>
<wgt id='79'> +1.6862312e+01 </wgt>
<wgt id='80'> +1.7606775e+01 </wgt>
<wgt id='81'> +1.7570239e+01 </wgt>
<wgt id='82'> +1.8128896e+01 </wgt>
<wgt id='83'> +1.7309872e+01 </wgt>
<wgt id='84'> +1.8234330e+01 </wgt>
<wgt id='85'> +1.8135930e+01 </wgt>
<wgt id='86'> +1.7086255e+01 </wgt>
<wgt id='87'> +1.7404444e+01 </wgt>
<wgt id='88'> +1.7354917e+01 </wgt>
<wgt id='89'> +1.7692788e+01 </wgt>
<wgt id='90'> +1.7638364e+01 </wgt>
<wgt id='91'> +1.8458512e+01 </wgt>
<wgt id='92'> +1.7647443e+01 </wgt>
<wgt id='93'> +1.7098838e+01 </wgt>
<wgt id='94'> +1.7886265e+01 </wgt>
<wgt id='95'> +1.7382438e+01 </wgt>
<wgt id='96'> +1.7736781e+01 </wgt>
<wgt id='97'> +1.8001015e+01 </wgt>
<wgt id='98'> +1.6827032e+01 </wgt>
<wgt id='99'> +1.7478639e+01 </wgt>
<wgt id='100'> +1.8446485e+01 </wgt>
<wgt id='101'> +1.7314665e+01 </wgt>
<wgt id='102'> +1.6357807e+01 </wgt>
<wgt id='103'> +1.8233244e+01 </wgt>
<wgt id='104'> +1.7104094e+01 </wgt>
<wgt id='105'> +1.8531955e+01 </wgt>
<wgt id='106'> +1.7524377e+01 </wgt>
<wgt id='107'> +1.8357707e+01 </wgt>
<wgt id='108'> +1.7070557e+01 </wgt>
<wgt id='109'> +1.7405222e+01 </wgt>
<wgt id='110'> +1.7886161e+01 </wgt>
<wgt id='111'> +1.7498369e+01 </wgt>
<wgt id='112'> +1.7436734e+01 </wgt>
<wgt id='113'> +1.7016142e+01 </wgt>
<wgt id='114'> +1.8396918e+01 </wgt>
<wgt id='115'> +1.8121904e+01 </wgt>
<wgt id='116'> +1.6748646e+01 </wgt>
<wgt id='117'> +1.7895449e+01 </wgt>
<wgt id='118'> +1.7213621e+01 </wgt>
<wgt id='119'> +1.7431363e+01 </wgt>
<wgt id='120'> +1.7819681e+01 </wgt>
<wgt id='121'> +1.7633900e+01 </wgt>
<wgt id='122'> +1.7515756e+01 </wgt>
<wgt id='123'> +1.7365583e+01 </wgt>
<wgt id='124'> +1.7591839e+01 </wgt>
<wgt id='125'> +1.7785051e+01 </wgt>
<wgt id='126'> +1.7702117e+01 </wgt>
<wgt id='127'> +1.7661779e+01 </wgt>
<wgt id='128'> +1.6868729e+01 </wgt>
<wgt id='129'> +1.8993494e+01 </wgt>
<wgt id='130'> +1.7165696e+01 </wgt>
<wgt id='131'> +1.8474087e+01 </wgt>
<wgt id='132'> +1.7164835e+01 </wgt>
<wgt id='133'> +1.6966702e+01 </wgt>
<wgt id='134'> +1.6807763e+01 </wgt>
<wgt id='135'> +1.7907110e+01 </wgt>
<wgt id='136'> +1.6875570e+01 </wgt>
<wgt id='137'> +1.6446737e+01 </wgt>
<wgt id='138'> +1.5480361e+01 </wgt>
<wgt id='139'> +1.7623744e+01 </wgt>
<wgt id='140'> +1.8644015e+01 </wgt>
<wgt id='141'> +1.7281509e+01 </wgt>
<wgt id='142'> +1.8307937e+01 </wgt>
<wgt id='143'> +1.7339154e+01 </wgt>
<wgt id='144'> +1.8060919e+01 </wgt>
<wgt id='145'> +1.7492242e+01 </wgt>
</rwgt>
</event>
<event>
 3      1 +1.7556000e+01 1.25000000e+02 7.54677100e-03 1.23506900e-01
       21 -1    0    0  502  501 +0.0000000000e+00 +0.0000000000e+00 +3.7245356989e+02 3.7245356989e+02 0.0000000000e+00 0.0000e+00 1.0000e+00
       21 -1    0    0  501  502 -0.0000000000e+00 -0.0000000000e+00 -1.0487884439e+01 1.0487884439e+01 0.0000000000e+00 0.0000e+00 1.0000e+00
       25  1    1    2    0    0 +0.0000000000e+00 +0.0000000000e+00 +3.6196568545e+02 3.8294145433e+02 1.2500000000e+02 0.0000e+00 0.0000e+00
<mgrwt>
<rscale>  0 0.12500000E+03</rscale>
<asrwt>0</asrwt>
<pdfrwt beam="1">  1       21 0.57300539E-01 0.12500000E+03</pdfrwt>
<pdfrwt beam="2">  1       21 0.16135210E-02 0.12500000E+03</pdfrwt>
<totfact> 0.49193799E+06</totfact>
</mgrwt>
<rwgt>
<wgt id='1'> +1.6876238e+01 </wgt>
<wgt id='2'> +0.0000000e+00 </wgt>
<wgt id='3'> +1.6876238e+01 </wgt>
<wgt id='4'> +1.5815070e+01 </wgt>
<wgt id='5'> +1.6876238e+01 </wgt>
<wgt id='6'> +1.7556000e+01 </wgt>
<wgt id='7'> +0.0000000e+00 </wgt>
<wgt id='8'> +1.7556000e+01 </wgt>
<wgt id='9'> +1.6876238e+01 </wgt>
<wgt id='10'> +1.7556000e+01 </wgt>
<wgt id='11'> +1.7803832e+01 </wgt>
<wgt id='12'> +0.0000000e+00 </wgt>
<wgt id='13'> +1.7803832e+01 </wgt>
<wgt id='14'> +1.7556000e+01 </wgt>
<wgt id='15'> +1.7803832e+01 </wgt>
<wgt id='16'> +1.6876238e+01 </wgt>
<wgt id='17'> +0.0000000e+00 </wgt>
<wgt id='18'> +1.6876238e+01 </wgt>
<wgt id='19'> +1.5815070e+01 </wgt>
<wgt id='20'> +1.6876238e+01 </wgt>
<wgt id='21'> +0.0000000e+00 </wgt>
<wgt id='22'> +1.7556000e+01 </wgt>
<wgt id='23'> +1.6876238e+01 </wgt>
<wgt id='24'> +1.7556000e+01 </wgt>
<wgt id='25'> +1.7803832e+01 </wgt>
<wgt id='26'> +0.0000000e+00 </wgt>
<wgt id='27'> +1.7803832e+01 </wgt>
<wgt id='28'> +1.7556000e+01 </wgt>
<wgt id='29'> +1.7803832e+01 </wgt>
<wgt id='30'> +1.6876238e+01 </wgt>
<wgt id='31'> +0.0000000e+00 </wgt>
<wgt id='32'> +1.6876238e+01 </wgt>
<wgt id='33'> +1.5815070e+01 </wgt>
<wgt id='34'> +1.6876238e+01 </wgt>
<wgt id='35'> +1.7556000e+01 </wgt>
<wgt id='36'> +0.0000000e+00 </wgt>
<wgt id='37'> +1.7556000e+01 </wgt>
<wgt id='38'> +1.6876238e+01 </wgt>
<wgt id='39'> +1.7556000e+01 </wgt>
<wgt id='40'> +1.7803832e+01 </wgt>
<wgt id='41'> +0.0000000e+00 </wgt>
<wgt id='42'> +1.7803832e+01 </wgt>
<wgt id='43'> +1.7556000e+01 </wgt>
<wgt id='44'> +1.7803832e+01 </wgt>
<wgt id='45'> +1.7556000e+01 </wgt>
<wgt id='46'> +1.7504615e+01 </wgt>
<wgt id='47'> +1.7656237e+01 </wgt>
<wgt id='48'> +1.7518974e+01 </wgt>
<wgt id='49'> +1.7726963e+01 </wgt>
<wgt id='50'> +1.8848691e+01 </wgt>
<wgt id='51'> +1.7358631e+01 </wgt>
<wgt id='52'> +1.7584387e+01 </wgt>
<wgt id='53'> +1.7493988e+01 </wgt>
<wgt id='54'> +1.7610297e+01 </wgt>
<wgt id='55'> +1.6501360e+01 </wgt>
<wgt id='56'> +1.6880904e+01 </wgt>
<wgt id='57'> +1.7307591e+01 </wgt>
<wgt id='58'> +1.7986967e+01 </wgt>
<wgt id='59'> +1.7533690e+01 </wgt>
<wgt id='60'> +1.7596573e+01 </wgt>
<wgt id='61'> +1.7195012e+01 </wgt>
<wgt id='62'> +1.7439060e+01 </wgt>
<wgt id='63'> +1.7659795e+01 </wgt>
<wgt id='64'> +1.7636685e+01 </wgt>
<wgt id='65'> +1.9044245e+01 </wgt>
<wgt id='66'> +1.7135494e+01 </wgt>
<wgt id='67'> +1.7580346e+01 </wgt>
<wgt id='68'> +1.8300005e+01 </wgt>
<wgt id='69'> +1.6806351e+01 </wgt>
<wgt id='70'> +1.7346525e+01 </wgt>
<wgt id='71'> +1.7648121e+01 </wgt>
<wgt id='72'> +1.7634957e+01 </wgt>
<wgt id='73'> +1.7684787e+01 </wgt>
<wgt id='74'> +1.7917352e+01 </wgt>
<wgt id='75'> +1.7814630e+01 </wgt>
<wgt id='76'> +1.7185479e+01 </wgt>
<wgt id='77'> +1.7222302e+01 </wgt>
<wgt id='78'> +1.7581956e+01 </wgt>
<wgt id='79'> +1.7242366e+01 </wgt>
<wgt id='80'> +1.7382212e+01 </wgt>
<wgt id='81'> +1.7338398e+01 </wgt>
<wgt id='82'> +1.7864143e+01 </wgt>
<wgt id='83'> +1.7425715e+01 </wgt>
<wgt id='84'> +1.8219274e+01 </wgt>
<wgt id='85'> +1.8214426e+01 </wgt>
<wgt id='86'> +1.7344879e+01 </wgt>
<wgt id='87'> +1.7610660e+01 </wgt>
<wgt id='88'> +1.7327569e+01 </wgt>
<wgt id='89'> +1.8073675e+01 </wgt>
<wgt id='90'> +1.7870959e+01 </wgt>
<wgt id='91'> +1.8279050e+01 </wgt>
<wgt id='92'> +1.6744048e+01 </wgt>
<wgt id='93'> +1.7465182e+01 </wgt>
<wgt id='94'> +1.7599339e+01 </wgt>
<wgt id='95'> +1.7159418e+01 </wgt>
<wgt id='96'> +1.8233746e+01 </wgt>
<wgt id='97'> +1.7732367e+01 </wgt>
<wgt id='98'> +1.6906402e+01 </wgt>
<wgt id='99'> +1.7494966e+01 </wgt>
<wgt id='100'> +1.7759642e+01 </wgt>
<wgt id='101'> +1.8117869e+01 </wgt>
<wgt id='102'> +1.7103544e+01 </wgt>
<wgt id='103'> +1.8595820e+01 </wgt>
<wgt id='104'> +1.7212505e+01 </wgt>
<wgt id='105'> +1.8131200e+01 </wgt>
<wgt id='106'> +1.6795960e+01 </wgt>
<wgt id='107'> +1.7615884e+01 </wgt>
<wgt id='108'> +1.6327666e+01 </wgt>
<wgt id='109'> +1.7025437e+01 </wgt>
<wgt id='110'> +1.7833624e+01 </wgt>
<wgt id='111'> +1.7201115e+01 </wgt>
<wgt id='112'> +1.7024459e+01 </wgt>
<wgt id='113'> +1.6759350e+01 </wgt>
<wgt id='114'> +1.7636079e+01 </wgt>
<wgt id='115'> +1.7270990e+01 </wgt>
<wgt id='116'> +1.7372349e+01 </wgt>
<wgt id='117'> +1.7616711e+01 </wgt>
<wgt id='118'> +1.7846352e+01 </wgt>
<wgt id='119'> +1.7227124e+01 </wgt>
<wgt id='120'> +1.7317980e+01 </wgt>
<wgt id='121'> +1.7480647e+01 </wgt>
<wgt id='122'> +1.7445450e+01 </wgt>
<wgt id='123'> +1.7502136e+01 </wgt>
<wgt id='124'> +1.8211113e+01 </wgt>
<wgt id='125'> +1.8359906e+01 </wgt>
<wgt id='126'> +1.7954728e+01 </wgt>
<wgt id='127'> +1.7936866e+01 </wgt>
<wgt id='128'> +1.6414107e+01 </wgt>
<wgt id='129'> +1.9050849e+01 </wgt>
<wgt id='130'> +1.7138991e+01 </wgt>
<wgt id='131'> +1.8403534e+01 </wgt>
<wgt id='132'> +1.7625992e+01 </wgt>
<wgt id='133'> +1.7480613e+01 </wgt>
<wgt id='134'> +1.6908037e+01 </wgt>
<wgt id='135'> +1.7947173e+01 </wgt>
<wgt id='136'> +1.7271255e+01 </wgt>
<wgt id='137'> +1.6600393e+01 </wgt>
<wgt id='138'> +1.6049584e+01 </wgt>
<wgt id='139'> +1.7963576e+01 </wgt>
<wgt id='140'> +1.8339108e+01 </wgt>
<wgt id='141'> +1.7318509e+01 </wgt>
<wgt id='142'> +1.7809709e+01 </wgt>
<wgt id='143'> +1.7570934e+01 </wgt>
<wgt id='144'> +1.7717040e+01 </wgt>
<wgt id='145'> +1.7453597e+01 </wgt>
</rwgt>
</event>
<event>
 3      1 +1.7556000e+01 1.25000000e+02 7.54677100e-03 1.23506900e-01
       21 -1    0    0  502  501 +0.0000000000e+00 +0.0000000000e+00 +1.4814864396e+01 1.4814864396e+01 0.0000000000e+00 0.0000e+00 -1.0000e+00
       21 -1    0    0  501  502 -0.0000000000e+00 -0.0000000000e+00 -2.6367099256e+02 2.6367099256e+02 0.0000000000e+00 0.0000e+00 -1.0000e+00
       25  1    1    2    0    0 +0.0000000000e+00 +0.0000000000e+00 -2.4885612817e+02 2.7848585696e+02 1.2500000000e+02 0.0000e+00 0.0000e+00
<mgrwt>
<rscale>  0 0.12500000E+03</rscale>
<asrwt>0</asrwt>
<pdfrwt beam="1">  1       21 0.22792101E-02 0.12500000E+03</pdfrwt>
<pdfrwt beam="2">  1       21 0.40564764E-01 0.12500000E+03</pdfrwt>
<totfact> 0.57292858E+06</totfact>
</mgrwt>
<rwgt>
<wgt id='1'> +1.6792416e+01 </wgt>
<wgt id='2'> +0.0000000e+00 </wgt>
<wgt id='3'> +1.6792416e+01 </wgt>
<wgt id='4'> +1.5647543e+01 </wgt>
<wgt id='5'> +1.6792416e+01 </wgt>
<wgt id='6'> +1.7556000e+01 </wgt>
<wgt id='7'> +0.0000000e+00 </wgt>
<wgt id='8'> +1.7556000e+01 </wgt>
<wgt id='9'> +1.6792416e+01 </wgt>
<wgt id='10'> +1.7556000e+01 </wgt>
<wgt id='11'> +1.7883048e+01 </wgt>
<wgt id='12'> +0.0000000e+00 </wgt>
<wgt id='13'> +1.7883048e+01 </wgt>
<wgt id='14'> +1.7556000e+01 </wgt>
<wgt id='15'> +1.7883048e+01 </wgt>
<wgt id='16'> +1.6792416e+01 </wgt>
<wgt id='17'> +0.0000000e+00 </wgt>
<wgt id='18'> +1.6792416e+01 </wgt>
<wgt id='19'> +1.5647543e+01 </wgt>
<wgt id='20'> +1.6792416e+01 </wgt>
<wgt id='21'> +0.0000000e+00 </wgt>
<wgt id='22'> +1.7556000e+01 </wgt>
<wgt id='23'> +1.6792416e+01 </wgt>
<wgt id='24'> +1.7556000e+01 </wgt>
<wgt id='25'> +1.7883048e+01 </wgt>
<wgt id='26'> +0.0000000e+00 </wgt>
<wgt id='27'> +1.7883048e+01 </wgt>
<wgt id='28'> +1.7556000e+01 </wgt>
<wgt id='29'> +1.7883048e+01 </wgt>
<wgt id='30'> +1.6792416e+01 </wgt>
<wgt id='31'> +0.0000000e+00 </wgt>
<wgt id='32'> +1.6792416e+01 </wgt>
<wgt id='33'> +1.5647543e+01 </wgt>
<wgt id='34'> +1.6792416e+01 </wgt>
<wgt id='35'> +1.7556000e+01 </wgt>
<wgt id='36'> +0.0000000e+00 </wgt>
<wgt id='37'> +1.7556000e+01 </wgt>
<wgt id='38'> +1.6792416e+01 </wgt>
<wgt id='39'> +1.7556000e+01 </wgt>
<wgt id='40'> +1.7883048e+01 </wgt>
<wgt id='41'> +0.0000000e+00 </wgt>
<wgt id='42'> +1.7883048e+01 </wgt>
<wgt id='43'> +1.7556000e+01 </wgt>
<wgt id='44'> +1.7883048e+01 </wgt>
<wgt id='45'> +1.7556000e+01 </wgt>
<wgt id='46'> +1.7298208e+01 </wgt>
<wgt id='47'> +1.7619710e+01 </wgt>
<wgt id='48'> +1.7390876e+01 </wgt>
<wgt id='49'> +1.7699266e+01 </wgt>
<wgt id='50'> +1.8503985e+01 </wgt>
<wgt id='51'> +1.7339156e+01 </wgt>
<wgt id='52'> +1.7492278e+01 </wgt>
<wgt id='53'> +1.7714584e+01 </wgt>
<wgt id='54'> +1.7616320e+01 </wgt>
<wgt id='55'> +1.6430865e+01 </wgt>
<wgt id='56'> +1.7079355e+01 </wgt>
<wgt id='57'> +1.7271182e+01 </wgt>
<wgt id='58'> +1.8156175e+01 </wgt>
<wgt id='59'> +1.7255983e+01 </wgt>
<wgt id='60'> +1.7261984e+01 </wgt>
<wgt id='61'> +1.7681340e+01 </wgt>
<wgt id='62'> +1.7375404e+01 </wgt>
<wgt id='63'> +1.7646424e+01 </wgt>
<wgt id='64'> +1.7801307e+01 </wgt>
<wgt id='65'> +1.9213177e+01 </wgt>
<wgt id='66'> +1.7119833e+01 </wgt>
<wgt id='67'> +1.7621357e+01 </wgt>
<wgt id='68'> +1.8142960e+01 </wgt>
<wgt id='69'> +1.6599456e+01 </wgt>
<wgt id='70'> +1.7410085e+01 </wgt>
<wgt id='71'> +1.7709992e+01 </wgt>
<wgt id='72'> +1.7957549e+01 </wgt>
<wgt id='73'> +1.7735713e+01 </wgt>
<wgt id='74'> +1.7690576e+01 </wgt>
<wgt id='75'> +1.7742756e+01 </wgt>
<wgt id='76'> +1.7225309e+01 </wgt>
<wgt id='77'> +1.7037671e+01 </wgt>
<wgt id='78'> +1.7835781e+01 </wgt>
<wgt id='79'> +1.7043158e+01 </wgt>
<wgt id='80'> +1.7497830e+01 </wgt>
<wgt id='81'> +1.7440770e+01 </wgt>
<wgt id='82'> +1.8039155e+01 </wgt>
<wgt id='83'> +1.7390580e+01 </wgt>
<wgt id='84'> +1.8262220e+01 </wgt>
<wgt id='85'> +1.8234809e+01 </wgt>
<wgt id='86'> +1.7225395e+01 </wgt>
<wgt id='87'> +1.7514150e+01 </wgt>
<wgt id='88'> +1.7361291e+01 </wgt>
<wgt id='89'> +1.7919335e+01 </wgt>
<wgt id='90'> +1.7750200e+01 </wgt>
<wgt id='91'> +1.8408999e+01 </wgt>
<wgt id='92'> +1.7091101e+01 </wgt>
<wgt id='93'> +1.7295976e+01 </wgt>
<wgt id='94'> +1.7739506e+01 </wgt>
<wgt id='95'> +1.7204227e+01 </wgt>
<wgt id='96'> +1.8046768e+01 </wgt>
<wgt id='97'> +1.7873893e+01 </wgt>
<wgt id='98'> +1.6830664e+01 </wgt>
<wgt id='99'> +1.7517911e+01 </wgt>
<wgt id='100'> +1.8125584e+01 </wgt>
<wgt id='101'> +1.7712928e+01 </wgt>
<wgt id='102'> +1.6712579e+01 </wgt>
<wgt id='103'> +1.8457345e+01 </wgt>
<wgt id='104'> +1.7160362e+01 </wgt>
<wgt id='105'> +1.8305962e+01 </wgt>
<wgt id='106'> +1.7101782e+01 </wgt>
<wgt id='107'> +1.7974297e+01 </wgt>
<wgt id='108'> +1.6654529e+01 </wgt>
<wgt id='109'> +1.7179900e+01 </wgt>
<wgt id='110'> +1.7868053e+01 </wgt>
<wgt id='111'> +1.7319616e+01 </wgt>
<wgt id='112'> +1.7219522e+01 </wgt>
<wgt id='113'> +1.6851727e+01 </wgt>
<wgt id='114'> +1.7983726e+01 </wgt>
<wgt id='115'> +1.7707498e+01 </wgt>
<wgt id='116'> +1.7070349e+01 </wgt>
<wgt id='117'> +1.7772371e+01 </wgt>
<wgt id='118'> +1.7547094e+01 </wgt>
<wgt id='119'> +1.7292102e+01 </wgt>
<wgt id='120'> +1.7583725e+01 </wgt>
<wgt id='121'> +1.7528076e+01 </wgt>
<wgt id='122'> +1.7467628e+01 </wgt>
<wgt id='123'> +1.7456457e+01 </wgt>
<wgt id='124'> +1.7904125e+01 </wgt>
<wgt id='125'> +1.8067186e+01 </wgt>
<wgt id='126'> +1.7875609e+01 </wgt>
<wgt id='127'> +1.7825608e+01 </wgt>
<wgt id='128'> +1.6637220e+01 </wgt>
<wgt id='129'> +1.9041938e+01 </wgt>
<wgt id='130'> +1.7183199e+01 </wgt>
<wgt id='131'> +1.8474847e+01 </wgt>
<wgt id='132'> +1.7335034e+01 </wgt>
<wgt id='133'> +1.7218959e+01 </wgt>
<wgt id='134'> +1.6817964e+01 </wgt>
<wgt id='135'> +1.7944405e+01 </wgt>
<wgt id='136'> +1.6994238e+01 </wgt>
<wgt id='137'> +1.6515771e+01 </wgt>
<wgt id='138'> +1.5771298e+01 </wgt>
<wgt id='139'> +1.7807088e+01 </wgt>
<wgt id='140'> +1.8515556e+01 </wgt>
<wgt id='141'> +1.7288213e+01 </wgt>
<wgt id='142'> +1.8107609e+01 </wgt>
<wgt id='143'> +1.7427945e+01 </wgt>
<wgt id='144'> +1.7880958e+01 </wgt>
<wgt id='145'> +1.7471832e+01 </wgt>
</rwgt>
</event>
<event>
 3      1 +1.7556000e+01 1.25000000e+02 7.54677100e-03 1.23506900e-01
       21 -1    0    0  502  501 +0.0000000000e+00 +0.0000000000e+00 +1.4996677873e+01 1.4996677873e+01 0.0000000000e+00 0.0000e+00 -1.0000e+00
       21 -1    0    0  501  502 -0.0000000000e+00 -0.0000000000e+00 -2.6047435526e+02 2.6047435526e+02 0.0000000000e+00 0.0000e+00 -1.0000e+00
       25  1    1    2    0    0 +0.0000000000e+00 +0.0000000000e+00 -2.4547767739e+02 2.7547103313e+02 1.2500000000e+02 0.0000e+00 0.0000e+00
<mgrwt>
<rscale>  0 0.12500000E+03</rscale>
<asrwt>0</asrwt>
<pdfrwt beam="1">  1       21 0.23071814E-02 0.12500000E+03</pdfrwt>
<pdfrwt beam="2">  1       21 0.40072974E-01 0.12500000E+03</pdfrwt>
<totfact> 0.57558286E+06</totfact>
</mgrwt>
<rwgt>
<wgt id='1'> +1.6789594e+01 </wgt>
<wgt id='2'> +0.0000000e+00 </wgt>
<wgt id='3'> +1.6789594e+01 </wgt>
<wgt id='4'> +1.5641920e+01 </wgt>
<wgt id='5'> +1.6789594e+01 </wgt>
<wgt id='6'> +1.7556000e+01 </wgt>
<wgt id='7'> +0.0000000e+00 </wgt>
<wgt id='8'> +1.7556000e+01 </wgt>
<wgt id='9'> +1.6789594e+01 </wgt>
<wgt id='10'> +1.7556000e+01 </wgt>
<wgt id='11'> +1.7885731e+01 </wgt>
<wgt id='12'> +0.0000000e+00 </wgt>
<wgt id='13'> +1.7885731e+01 </wgt>
<wgt id='14'> +1.7556000e+01 </wgt>
<wgt id='15'> +1.7885731e+01 </wgt>
<wgt id='16'> +1.6789594e+01 </wgt>
<wgt id='17'> +0.0000000e+00 </wgt>
<wgt id='18'> +1.6789594e+01 </wgt>
<wgt id='19'> +1.5641920e+01 </wgt>
<wgt id='20'> +1.6789594e+01 </wgt>
<wgt id='21'> +0.0000000e+00 </wgt>
<wgt id='22'> +1.7556000e+01 </wgt>
<wgt id='23'> +1.6789594e+01 </wgt>
<wgt id='24'> +1.7556000e+01 </wgt>
<wgt id='25'> +1.7885731e+01 </wgt>
<wgt id='26'> +0.0000000e+00 </wgt>
<wgt id='27'> +1.7885731e+01 </wgt>
<wgt id='28'> +1.7556000e+01 </wgt>
<wgt id='29'> +1.7885731e+01 </wgt>
<wgt id='30'> +1.6789594e+01 </wgt>
<wgt id='31'> +0.0000000e+00 </wgt>
<wgt id='32'> +1.6789594e+01 </wgt>
<wgt id='33'> +1.5641920e+01 </wgt>
<wgt id='34'> +1.6789594e+01 </wgt>
<wgt id='35'> +1.7556000e+01 </wgt>
<wgt id='36'> +0.0000000e+00 </wgt>
<wgt id='37'> +1.7556000e+01 </wgt>
<wgt id='38'> +1.6789594e+01 </wgt>
<wgt id='39'> +1.7556000e+01 </wgt>
<wgt id='40'> +1.7885731e+01 </wgt>
<wgt id='41'> +0.0000000e+00 </wgt>
<wgt id='42'> +1.7885731e+01 </wgt>
<wgt id='43'> +1.7556000e+01 </wgt>
<wgt id='44'> +1.7885731e+01 </wgt>
<wgt id='45'> +1.7556000e+01 </wgt>
<wgt id='46'> +1.7291952e+01 </wgt>
<wgt id='47'> +1.7617968e+01 </wgt>
<wgt id='48'> +1.7386616e+01 </wgt>
<wgt id='49'> +1.7697735e+01 </wgt>
<wgt id='50'> +1.8492529e+01 </wgt>
<wgt id='51'> +1.7338283e+01 </wgt>
<wgt id='52'> +1.7489675e+01 </wgt>
<wgt id='53'> +1.7720923e+01 </wgt>
<wgt id='54'> +1.7616773e+01 </wgt>
<wgt id='55'> +1.6431407e+01 </wgt>
<wgt id='56'> +1.7085275e+01 </wgt>
<wgt id='57'> +1.7271639e+01 </wgt>
<wgt id='58'> +1.8160804e+01 </wgt>
<wgt id='59'> +1.7249072e+01 </wgt>
<wgt id='60'> +1.7252470e+01 </wgt>
<wgt id='61'> +1.7693431e+01 </wgt>
<wgt id='62'> +1.7372985e+01 </wgt>
<wgt id='63'> +1.7645908e+01 </wgt>
<wgt id='64'> +1.7806330e+01 </wgt>
<wgt id='65'> +1.9216520e+01 </wgt>
<wgt id='66'> +1.7119427e+01 </wgt>
<wgt id='67'> +1.7622505e+01 </wgt>
<wgt id='68'> +1.8138433e+01 </wgt>
<wgt id='69'> +1.6593149e+01 </wgt>
<wgt id='70'> +1.7412343e+01 </wgt>
<wgt id='71'> +1.7711894e+01 </wgt>
<wgt id='72'> +1.7969031e+01 </wgt>
<wgt id='73'> +1.7736751e+01 </wgt>
<wgt id='74'> +1.7683807e+01 </wgt>
<wgt id='75'> +1.7740343e+01 </wgt>
<wgt id='76'> +1.7227815e+01 </wgt>
<wgt id='77'> +1.7032284e+01 </wgt>
<wgt id='78'> +1.7842521e+01 </wgt>
<wgt id='79'> +1.7037711e+01 </wgt>
<wgt id='80'> +1.7501055e+01 </wgt>
<wgt id='81'> +1.7444176e+01 </wgt>
<wgt id='82'> +1.8043008e+01 </wgt>
<wgt id='83'> +1.7388821e+01 </wgt>
<wgt id='84'> +1.8262249e+01 </wgt>
<wgt id='85'> +1.8233681e+01 </wgt>
<wgt id='86'> +1.7221643e+01 </wgt>
<wgt id='87'> +1.7511151e+01 </wgt>
<wgt id='88'> +1.7361596e+01 </wgt>
<wgt id='89'> +1.7913747e+01 </wgt>
<wgt id='90'> +1.7746736e+01 </wgt>
<wgt id='91'> +1.8411521e+01 </wgt>
<wgt id='92'> +1.7104088e+01 </wgt>
<wgt id='93'> +1.7290699e+01 </wgt>
<wgt id='94'> +1.7743623e+01 </wgt>
<wgt id='95'> +1.7207494e+01 </wgt>
<wgt id='96'> +1.8039438e+01 </wgt>
<wgt id='97'> +1.7877737e+01 </wgt>
<wgt id='98'> +1.6829481e+01 </wgt>
<wgt id='99'> +1.7517757e+01 </wgt>
<wgt id='100'> +1.8135610e+01 </wgt>
<wgt id='101'> +1.7701160e+01 </wgt>
<wgt id='102'> +1.6701731e+01 </wgt>
<wgt id='103'> +1.8451953e+01 </wgt>
<wgt id='104'> +1.7158771e+01 </wgt>
<wgt id='105'> +1.8311728e+01 </wgt>
<wgt id='106'> +1.7112495e+01 </wgt>
<wgt id='107'> +1.7985171e+01 </wgt>
<wgt id='108'> +1.6665492e+01 </wgt>
<wgt id='109'> +1.7185575e+01 </wgt>
<wgt id='110'> +1.7868836e+01 </wgt>
<wgt id='111'> +1.7323930e+01 </wgt>
<wgt id='112'> +1.7225689e+01 </wgt>
<wgt id='113'> +1.6855637e+01 </wgt>
<wgt id='114'> +1.7994952e+01 </wgt>
<wgt id='115'> +1.7720022e+01 </wgt>
<wgt id='116'> +1.7061281e+01 </wgt>
<wgt id='117'> +1.7776476e+01 </wgt>
<wgt id='118'> +1.7537850e+01 </wgt>
<wgt id='119'> +1.7295172e+01 </wgt>
<wgt id='120'> +1.7591348e+01 </wgt>
<wgt id='121'> +1.7530385e+01 </wgt>
<wgt id='122'> +1.7468674e+01 </wgt>
<wgt id='123'> +1.7454452e+01 </wgt>
<wgt id='124'> +1.7894997e+01 </wgt>
<wgt id='125'> +1.8058778e+01 </wgt>
<wgt id='126'> +1.7872091e+01 </wgt>
<wgt id='127'> +1.7821566e+01 </wgt>
<wgt id='128'> +1.6643939e+01 </wgt>
<wgt id='129'> +1.9040898e+01 </wgt>
<wgt id='130'> +1.7183506e+01 </wgt>
<wgt id='131'> +1.8475778e+01 </wgt>
<wgt id='132'> +1.7328210e+01 </wgt>
<wgt id='133'> +1.7211499e+01 </wgt>
<wgt id='134'> +1.6816535e+01 </wgt>
<wgt id='135'> +1.7943785e+01 </wgt>
<wgt id='136'> +1.6988499e+01 </wgt>
<wgt id='137'> +1.6513577e+01 </wgt>
<wgt id='138'> +1.5763095e+01 </wgt>
<wgt id='139'> +1.7802157e+01 </wgt>
<wgt id='140'> +1.8519971e+01 </wgt>
<wgt id='141'> +1.7287681e+01 </wgt>
<wgt id='142'> +1.8114854e+01 </wgt>
<wgt id='143'> +1.7424504e+01 </wgt>
<wgt id='144'> +1.7885915e+01 </wgt>
<wgt id='145'> +1.7472271e+01 </wgt>
</rwgt>
</event>
<event>
 3      1 +1.7556000e+01 1.25000000e+02 7.54677100e-03 1.23506900e-01
       21 -1    0    0  502  501 +0.0000000000e+00 +0.0000000000e+00 +2.0877525212e+01 2.0877525212e+01 0.0000000000e+00 0.0000e+00 -1.0000e+00
       21 -1    0    0  501  502 -0.0000000000e+00 -0.0000000000e+00 -1.8710311496e+02 1.8710311496e+02 0.0000000000e+00 0.0000e+00 -1.0000e+00
       25  1    1    2    0    0 +0.0000000000e+00 +0.0000000000e+00 -1.6622558975e+02 2.0798064018e+02 1.2500000000e+02 0.0000e+00 0.0000e+00
<mgrwt>
<rscale>  0 0.12500000E+03</rscale>
<asrwt>0</asrwt>
<pdfrwt beam="1">  1       21 0.32119270E-02 0.12500000E+03</pdfrwt>
<pdfrwt beam="2">  1       21 0.28785094E-01 0.12500000E+03</pdfrwt>
<totfact> 0.64072624E+06</totfact>
</mgrwt>
<rwgt>
<wgt id='1'> +1.6730450e+01 </wgt>
<wgt id='2'> +0.0000000e+00 </wgt>
<wgt id='3'> +1.6730450e+01 </wgt>
<wgt id='4'> +1.5523177e+01 </wgt>
<wgt id='5'> +1.6730450e+01 </wgt>
<wgt id='6'> +1.7556000e+01 </wgt>
<wgt id='7'> +0.0000000e+00 </wgt>
<wgt id='8'> +1.7556000e+01 </wgt>
<wgt id='9'> +1.6730450e+01 </wgt>
<wgt id='10'> +1.7556000e+01 </wgt>
<wgt id='11'> +1.7941292e+01 </wgt>
<wgt id='12'> +0.0000000e+00 </wgt>
<wgt id='13'> +1.7941292e+01 </wgt>
<wgt id='14'> +1.7556000e+01 </wgt>
<wgt id='15'> +1.7941292e+01 </wgt>
<wgt id='16'> +1.6730450e+01 </wgt>
<wgt id='17'> +0.0000000e+00 </wgt>
<wgt id='18'> +1.6730450e+01 </wgt>
<wgt id='19'> +1.5523177e+01 </wgt>
<wgt id='20'> +1.6730450e+01 </wgt>
<wgt id='21'> +0.0000000e+00 </wgt>
<wgt id='22'> +1.7556000e+01 </wgt>
<wgt id='23'> +1.6730450e+01 </wgt>
<wgt id='24'> +1.7556000e+01 </wgt>
<wgt id='25'> +1.7941292e+01 </wgt>
<wgt id='26'> +0.0000000e+00 </wgt>
<wgt id='27'> +1.7941292e+01 </wgt>
<wgt id='28'> +1.7556000e+01 </wgt>
<wgt id='29'> +1.7941292e+01 </wgt>
<wgt id='30'> +1.6730450e+01 </wgt>
<wgt id='31'> +0.0000000e+00 </wgt>
<wgt id='32'> +1.6730450e+01 </wgt>
<wgt id='33'> +1.5523177e+01 </wgt>
<wgt id='34'> +1.6730450e+01 </wgt>
<wgt id='35'> +1.7556000e+01 </wgt>
<wgt id='36'> +0.0000000e+00 </wgt>
<wgt id='37'> +1.7556000e+01 </wgt>
<wgt id='38'> +1.6730450e+01 </wgt>
<wgt id='39'> +1.7556000e+01 </wgt>
<wgt id='40'> +1.7941292e+01 </wgt>
<wgt id='41'> +0.0000000e+00 </wgt>
<wgt id='42'> +1.7941292e+01 </wgt>
<wgt id='43'> +1.7556000e+01 </wgt>
<wgt id='44'> +1.7941292e+01 </wgt>
<wgt id='45'> +1.7556000e+01 </wgt>
<wgt id='46'> +1.7146077e+01 </wgt>
<wgt id='47'> +1.7570997e+01 </wgt>
<wgt id='48'> +1.7281532e+01 </wgt>
<wgt id='49'> +1.7649304e+01 </wgt>
<wgt id='50'> +1.8221303e+01 </wgt>
<wgt id='51'> +1.7312215e+01 </wgt>
<wgt id='52'> +1.7432135e+01 </wgt>
<wgt id='53'> +1.7865076e+01 </wgt>
<wgt id='54'> +1.7631139e+01 </wgt>
<wgt id='55'> +1.6479742e+01 </wgt>
<wgt id='56'> +1.7214863e+01 </wgt>
<wgt id='57'> +1.7306462e+01 </wgt>
<wgt id='58'> +1.8258309e+01 </wgt>
<wgt id='59'> +1.7110948e+01 </wgt>
<wgt id='60'> +1.7033903e+01 </wgt>
<wgt id='61'> +1.7935920e+01 </wgt>
<wgt id='62'> +1.7307758e+01 </wgt>
<wgt id='63'> +1.7630229e+01 </wgt>
<wgt id='64'> +1.7920421e+01 </wgt>
<wgt id='65'> +1.9283410e+01 </wgt>
<wgt id='66'> +1.7110007e+01 </wgt>
<wgt id='67'> +1.7648649e+01 </wgt>
<wgt id='68'> +1.8039171e+01 </wgt>
<wgt id='69'> +1.6446630e+01 </wgt>
<wgt id='70'> +1.7467893e+01 </wgt>
<wgt id='71'> +1.7760178e+01 </wgt>
<wgt id='72'> +1.8261988e+01 </wgt>
<wgt id='73'> +1.7749949e+01 </wgt>
<wgt id='74'> +1.7528097e+01 </wgt>
<wgt id='75'> +1.7680835e+01 </wgt>
<wgt id='76'> +1.7306811e+01 </wgt>
<wgt id='77'> +1.6907503e+01 </wgt>
<wgt id='78'> +1.7984407e+01 </wgt>
<wgt id='79'> +1.6915725e+01 </wgt>
<wgt id='80'> +1.7571967e+01 </wgt>
<wgt id='81'> +1.7526795e+01 </wgt>
<wgt id='82'> +1.8110730e+01 </wgt>
<wgt id='83'> +1.7340305e+01 </wgt>
<wgt id='84'> +1.8251486e+01 </wgt>
<wgt id='85'> +1.8181214e+01 </wgt>
<wgt id='86'> +1.7132005e+01 </wgt>
<wgt id='87'> +1.7439573e+01 </wgt>
<wgt id='88'> +1.7361323e+01 </wgt>
<wgt id='89'> +1.7769328e+01 </wgt>
<wgt id='90'> +1.7670021e+01 </wgt>
<wgt id='91'> +1.8451805e+01 </wgt>
<wgt id='92'> +1.7443780e+01 </wgt>
<wgt id='93'> +1.7163021e+01 </wgt>
<wgt id='94'> +1.7837500e+01 </wgt>
<wgt id='95'> +1.7312647e+01 </wgt>
<wgt id='96'> +1.7846585e+01 </wgt>
<wgt id='97'> +1.7962187e+01 </wgt>
<wgt id='98'> +1.6818904e+01 </wgt>
<wgt id='99'> +1.7496855e+01 </wgt>
<wgt id='100'> +1.8350086e+01 </wgt>
<wgt id='101'> +1.7437085e+01 </wgt>
<wgt id='102'> +1.6463449e+01 </wgt>
<wgt id='103'> +1.8311687e+01 </wgt>
<wgt id='104'> +1.7123056e+01 </wgt>
<wgt id='105'> +1.8456036e+01 </wgt>
<wgt id='106'> +1.7379750e+01 </wgt>
<wgt id='107'> +1.8236446e+01 </wgt>
<wgt id='108'> +1.6931589e+01 </wgt>
<wgt id='109'> +1.7328580e+01 </wgt>
<wgt id='110'> +1.7881372e+01 </wgt>
<wgt id='111'> +1.7436146e+01 </wgt>
<wgt id='112'> +1.7368751e+01 </wgt>
<wgt id='113'> +1.6957850e+01 </wgt>
<wgt id='114'> +1.8266984e+01 </wgt>
<wgt id='115'> +1.8003276e+01 </wgt>
<wgt id='116'> +1.6851460e+01 </wgt>
<wgt id='117'> +1.7863607e+01 </wgt>
<wgt id='118'> +1.7320690e+01 </wgt>
<wgt id='119'> +1.7380652e+01 </wgt>
<wgt id='120'> +1.7760108e+01 </wgt>
<wgt id='121'> +1.7594689e+01 </wgt>
<wgt id='122'> +1.7498511e+01 </wgt>
<wgt id='123'> +1.7399863e+01 </wgt>
<wgt id='124'> +1.7689204e+01 </wgt>
<wgt id='125'> +1.7872625e+01 </wgt>
<wgt id='126'> +1.7771314e+01 </wgt>
<wgt id='127'> +1.7718062e+01 </wgt>
<wgt id='128'> +1.6797417e+01 </wgt>
<wgt id='129'> +1.9012153e+01 </wgt>
<wgt id='130'> +1.7177826e+01 </wgt>
<wgt id='131'> +1.8481895e+01 </wgt>
<wgt id='132'> +1.7200754e+01 </wgt>
<wgt id='133'> +1.7043990e+01 </wgt>
<wgt id='134'> +1.6800384e+01 </wgt>
<wgt id='135'> +1.7921855e+01 </wgt>
<wgt id='136'> +1.6894238e+01 </wgt>
<wgt id='137'> +1.6466576e+01 </wgt>
<wgt id='138'> +1.5572831e+01 </wgt>
<wgt id='139'> +1.7683467e+01 </wgt>
<wgt id='140'> +1.8610675e+01 </wgt>
<wgt id='141'> +1.7282118e+01 </wgt>
<wgt id='142'> +1.8255272e+01 </wgt>
<wgt id='143'> +1.7357777e+01 </wgt>
<wgt id='144'> +1.8000575e+01 </wgt>
<wgt id='145'> +1.7483632e+01 </wgt>
</rwgt>
</event>
<event>
 3      1 +1.7556000e+01 1.25000000e+02 7.54677100e-03 1.23506900e-01
       21 -1    0    0  502  501 +0.0000000000e+00 +0.0000000000e+00 +1.3300643207e+02 1.3300643207e+02 0.0000000000e+00 0.0000e+00 1.0000e+00
       21 -1    0    0  501  502 -0.0000000000e+00 -0.0000000000e+00 -2.9368880431e+01 2.9368880431e+01 0.0000000000e+00 0.0000e+00 1.0000e+00
       25  1    1    2    0    0 +0.0000000000e+00 +0.0000000000e+00 +1.0363755164e+02 1.6237531250e+02 1.2500000000e+02 0.0000e+00 0.0000e+00
<mgrwt>
<rscale>  0 0.12500000E+03</rscale>
<asrwt>0</asrwt>
<pdfrwt beam="1">  1       21 0.20462528E-01 0.12500000E+03</pdfrwt>
<pdfrwt beam="2">  1       21 0.45182894E-02 0.12500000E+03</pdfrwt>
<totfact> 0.69230417E+06</totfact>
</mgrwt>
<rwgt>
<wgt id='1'> +1.6686401e+01 </wgt>
<wgt id='2'> +0.0000000e+00 </wgt>
<wgt id='3'> +1.6686401e+01 </wgt>
<wgt id='4'> +1.5434614e+01 </wgt>
<wgt id='5'> +1.6686401e+01 </wgt>
<wgt id='6'> +1.7556000e+01 </wgt>
<wgt id='7'> +0.0000000e+00 </wgt>
<wgt id='8'> +1.7556000e+01 </wgt>
<wgt id='9'> +1.6686401e+01 </wgt>
<wgt id='10'> +1.7556000e+01 </wgt>
<wgt id='11'> +1.7982580e+01 </wgt>
<wgt id='12'> +0.0000000e+00 </wgt>
<wgt id='13'> +1.7982580e+01 </wgt>
<wgt id='14'> +1.7556000e+01 </wgt>
<wgt id='15'> +1.7982580e+01 </wgt>
<wgt id='16'> +1.6686401e+01 </wgt>
<wgt id='17'> +0.0000000e+00 </wgt>
<wgt id='18'> +1.6686401e+01 </wgt>
<wgt id='19'> +1.5434614e+01 </wgt>
<wgt id='20'> +1.6686401e+01 </wgt>
<wgt id='21'> +0.0000000e+00 </wgt>
<wgt id='22'> +1.7556000e+01 </wgt>
<wgt id='23'> +1.6686401e+01 </wgt>
<wgt id='24'> +1.7556000e+01 </wgt>
<wgt id='25'> +1.7982580e+01 </wgt>
<wgt id='26'> +0.0000000e+00 </wgt>
<wgt id='27'> +1.7982580e+01 </wgt>
<wgt id='28'> +1.7556000e+01 </wgt>
<wgt id='29'> +1.7982580e+01 </wgt>
<wgt id='30'> +1.6686401e+01 </wgt>
<wgt id='31'> +0.0000000e+00 </wgt>
<wgt id='32'> +1.6686401e+01 </wgt>
<wgt id='33'> +1.5434614e+01 </wgt>
<wgt id='34'> +1.6686401e+01 </wgt>
<wgt id='35'> +1.7556000e+01 </wgt>
<wgt id='36'> +0.0000000e+00 </wgt>
<wgt id='37'> +1.7556000e+01 </wgt>
<wgt id='38'> +1.6686401e+01 </wgt>
<wgt id='39'> +1.7556000e+01 </wgt>
<wgt id='40'> +1.7982580e+01 </wgt>
<wgt id='41'> +0.0000000e+00 </wgt>
<wgt id='42'> +1.7982580e+01 </wgt>
<wgt id='43'> +1.7556000e+01 </wgt>
<wgt id='44'> +1.7982580e+01 </wgt>
<wgt id='45'> +1.7556000e+01 </wgt>
<wgt id='46'> +1.7043787e+01 </wgt>
<wgt id='47'> +1.7528455e+01 </wgt>
<wgt id='48'> +1.7200629e+01 </wgt>
<wgt id='49'> +1.7603109e+01 </wgt>
<wgt id='50'> +1.8015361e+01 </wgt>
<wgt id='51'> +1.7290347e+01 </wgt>
<wgt id='52'> +1.7403910e+01 </wgt>
<wgt id='53'> +1.7956820e+01 </wgt>
<wgt id='54'> +1.7639252e+01 </wgt>
<wgt id='55'> +1.6558287e+01 </wgt>
<wgt id='56'> +1.7299849e+01 </wgt>
<wgt id='57'> +1.7358776e+01 </wgt>
<wgt id='58'> +1.8320226e+01 </wgt>
<wgt id='59'> +1.7044908e+01 </wgt>
<wgt id='60'> +1.6893493e+01 </wgt>
<wgt id='61'> +1.8064415e+01 </wgt>
<wgt id='62'> +1.7254191e+01 </wgt>
<wgt id='63'> +1.7614233e+01 </wgt>
<wgt id='64'> +1.7988645e+01 </wgt>
<wgt id='65'> +1.9307309e+01 </wgt>
<wgt id='66'> +1.7104716e+01 </wgt>
<wgt id='67'> +1.7667882e+01 </wgt>
<wgt id='68'> +1.7972347e+01 </wgt>
<wgt id='69'> +1.6340279e+01 </wgt>
<wgt id='70'> +1.7512036e+01 </wgt>
<wgt id='71'> +1.7804683e+01 </wgt>
<wgt id='72'> +1.8504025e+01 </wgt>
<wgt id='73'> +1.7751656e+01 </wgt>
<wgt id='74'> +1.7418393e+01 </wgt>
<wgt id='75'> +1.7632515e+01 </wgt>
<wgt id='76'> +1.7389932e+01 </wgt>
<wgt id='77'> +1.6826311e+01 </wgt>
<wgt id='78'> +1.8066164e+01 </wgt>
<wgt id='79'> +1.6838712e+01 </wgt>
<wgt id='80'> +1.7622793e+01 </wgt>
<wgt id='81'> +1.7590571e+01 </wgt>
<wgt id='82'> +1.8134164e+01 </wgt>
<wgt id='83'> +1.7295438e+01 </wgt>
<wgt id='84'> +1.8226070e+01 </wgt>
<wgt id='85'> +1.8111479e+01 </wgt>
<wgt id='86'> +1.7065237e+01 </wgt>
<wgt id='87'> +1.7388494e+01 </wgt>
<wgt id='88'> +1.7351743e+01 </wgt>
<wgt id='89'> +1.7656756e+01 </wgt>
<wgt id='90'> +1.7625391e+01 </wgt>
<wgt id='91'> +1.8459686e+01 </wgt>
<wgt id='92'> +1.7746539e+01 </wgt>
<wgt id='93'> +1.7068910e+01 </wgt>
<wgt id='94'> +1.7908832e+01 </wgt>
<wgt id='95'> +1.7417431e+01 </wgt>
<wgt id='96'> +1.7684971e+01 </wgt>
<wgt id='97'> +1.8018212e+01 </wgt>
<wgt id='98'> +1.6833165e+01 </wgt>
<wgt id='99'> +1.7467815e+01 </wgt>
<wgt id='100'> +1.8487882e+01 </wgt>
<wgt id='101'> +1.7261679e+01 </wgt>
<wgt id='102'> +1.6312352e+01 </wgt>
<wgt id='103'> +1.8196751e+01 </wgt>
<wgt id='104'> +1.7095709e+01 </wgt>
<wgt id='105'> +1.8568001e+01 </wgt>
<wgt id='106'> +1.7591476e+01 </wgt>
<wgt id='107'> +1.8411587e+01 </wgt>
<wgt id='108'> +1.7133986e+01 </wgt>
<wgt id='109'> +1.7440049e+01 </wgt>
<wgt id='110'> +1.7887772e+01 </wgt>
<wgt id='111'> +1.7527872e+01 </wgt>
<wgt id='112'> +1.7466205e+01 </wgt>
<wgt id='113'> +1.7042633e+01 </wgt>
<wgt id='114'> +1.8454114e+01 </wgt>
<wgt id='115'> +1.8170586e+01 </wgt>
<wgt id='116'> +1.6702418e+01 </wgt>
<wgt id='117'> +1.7907388e+01 </wgt>
<wgt id='118'> +1.7165202e+01 </wgt>
<wgt id='119'> +1.7455440e+01 </wgt>
<wgt id='120'> +1.7840687e+01 </wgt>
<wgt id='121'> +1.7652534e+01 </wgt>
<wgt id='122'> +1.7523845e+01 </wgt>
<wgt id='123'> +1.7348760e+01 </wgt>
<wgt id='124'> +1.7549809e+01 </wgt>
<wgt id='125'> +1.7747055e+01 </wgt>
<wgt id='126'> +1.7666461e+01 </wgt>
<wgt id='127'> +1.7635374e+01 </wgt>
<wgt id='128'> +1.6899488e+01 </wgt>
<wgt id='129'> +1.8985953e+01 </wgt>
<wgt id='130'> +1.7159241e+01 </wgt>
<wgt id='131'> +1.8469198e+01 </wgt>
<wgt id='132'> +1.7154614e+01 </wgt>
<wgt id='133'> +1.6932620e+01 </wgt>
<wgt id='134'> +1.6813992e+01 </wgt>
<wgt id='135'> +1.7899699e+01 </wgt>
<wgt id='136'> +1.6872467e+01 </wgt>
<wgt id='137'> +1.6438143e+01 </wgt>
<wgt id='138'> +1.5437914e+01 </wgt>
<wgt id='139'> +1.7596248e+01 </wgt>
<wgt id='140'> +1.8657129e+01 </wgt>
<wgt id='141'> +1.7282096e+01 </wgt>
<wgt id='142'> +1.8328079e+01 </wgt>
<wgt id='143'> +1.7334111e+01 </wgt>
<wgt id='144'> +1.8089216e+01 </wgt>
<wgt id='145'> +1.7497365e+01 </wgt>
</rwgt>
</event>
<event>
 3      1 +1.7556000e+01 1.25000000e+02 7.54677100e-03 1.23506900e-01
       21 -1    0    0  502  501 +0.0000000000e+00 +0.0000000000e+00 +1.3567406294e+02 1.3567406294e+02 0.0000000000e+00 0.0000e+00 1.0000e+00
       21 -1    0    0  501  502 -0.0000000000e+00 -0.0000000000e+00 -2.8791427893e+01 2.8791427893e+01 0.0000000000e+00 0.0000e+00 1.0000e+00
       25  1    1    2    0    0 +0.0000000000e+00 +0.0000000000e+00 +1.0688263504e+02 1.6446549083e+02 1.2500000000e+02 0.0000e+00 0.0000e+00
<mgrwt>
<rscale>  0 0.12500000E+03</rscale>
<asrwt>0</asrwt>
<pdfrwt beam="1">  1       21 0.20872932E-01 0.12500000E+03</pdfrwt>
<pdfrwt beam="2">  1       21 0.44294505E-02 0.12500000E+03</pdfrwt>
<totfact> 0.68977936E+06</totfact>
</mgrwt>
<rwgt>
<wgt id='1'> +1.6688416e+01 </wgt>
<wgt id='2'> +0.0000000e+00 </wgt>
<wgt id='3'> +1.6688416e+01 </wgt>
<wgt id='4'> +1.5438676e+01 </wgt>
<wgt id='5'> +1.6688416e+01 </wgt>
<wgt id='6'> +1.7556000e+01 </wgt>
<wgt id='7'> +0.0000000e+00 </wgt>
<wgt id='8'> +1.7556000e+01 </wgt>
<wgt id='9'> +1.6688416e+01 </wgt>
<wgt id='10'> +1.7556000e+01 </wgt>
<wgt id='11'> +1.7980700e+01 </wgt>
<wgt id='12'> +0.0000000e+00 </wgt>
<wgt id='13'> +1.7980700e+01 </wgt>
<wgt id='14'> +1.7556000e+01 </wgt>
<wgt id='15'> +1.7980700e+01 </wgt>
<wgt id='16'> +1.6688416e+01 </wgt>
<wgt id='17'> +0.0000000e+00 </wgt>
<wgt id='18'> +1.6688416e+01 </wgt>
<wgt id='19'> +1.5438676e+01 </wgt>
<wgt id='20'> +1.6688416e+01 </wgt>
<wgt id='21'> +0.0000000e+00 </wgt>
<wgt id='22'> +1.7556000e+01 </wgt>
<wgt id='23'> +1.6688416e+01 </wgt>
<wgt id='24'> +1.7556000e+01 </wgt>
<wgt id='25'> +1.7980700e+01 </wgt>
<wgt id='26'> +0.0000000e+00 </wgt>
<wgt id='27'> +1.7980700e+01 </wgt>
<wgt id='28'> +1.7556000e+01 </wgt>
<wgt id='29'> +1.7980700e+01 </wgt>
<wgt id='30'> +1.6688416e+01 </wgt>
<wgt id='31'> +0.0000000e+00 </wgt>
<wgt id='32'> +1.6688416e+01 </wgt>
<wgt id='33'> +1.5438676e+01 </wgt>
<wgt id='34'> +1.6688416e+01 </wgt>
<wgt id='35'> +1.7556000e+01 </wgt>
<wgt id='36'> +0.0000000e+00 </wgt>
<wgt id='37'> +1.7556000e+01 </wgt>
<wgt id='38'> +1.6688416e+01 </wgt>
<wgt id='39'> +1.7556000e+01 </wgt>
<wgt id='40'> +1.7980700e+01 </wgt>
<wgt id='41'> +0.0000000e+00 </wgt>
<wgt id='42'> +1.7980700e+01 </wgt>
<wgt id='43'> +1.7556000e+01 </wgt>
<wgt id='44'> +1.7980700e+01 </wgt>
<wgt id='45'> +1.7556000e+01 </wgt>
<wgt id='46'> +1.7048541e+01 </wgt>
<wgt id='47'> +1.7530575e+01 </wgt>
<wgt id='48'> +1.7204534e+01 </wgt>
<wgt id='49'> +1.7605504e+01 </wgt>
<wgt id='50'> +1.8025166e+01 </wgt>
<wgt id='51'> +1.7291429e+01 </wgt>
<wgt id='52'> +1.7404971e+01 </wgt>
<wgt id='53'> +1.7952722e+01 </wgt>
<wgt id='54'> +1.7638937e+01 </wgt>
<wgt id='55'> +1.6553867e+01 </wgt>
<wgt id='56'> +1.7296028e+01 </wgt>
<wgt id='57'> +1.7355839e+01 </wgt>
<wgt id='58'> +1.8317437e+01 </wgt>
<wgt id='59'> +1.7047401e+01 </wgt>
<wgt id='60'> +1.6899798e+01 </wgt>
<wgt id='61'> +1.8059151e+01 </wgt>
<wgt id='62'> +1.7256834e+01 </wgt>
<wgt id='63'> +1.7615082e+01 </wgt>
<wgt id='64'> +1.7985752e+01 </wgt>
<wgt id='65'> +1.9306594e+01 </wgt>
<wgt id='66'> +1.7104919e+01 </wgt>
<wgt id='67'> +1.7666927e+01 </wgt>
<wgt id='68'> +1.7975360e+01 </wgt>
<wgt id='69'> +1.6345312e+01 </wgt>
<wgt id='70'> +1.7509890e+01 </wgt>
<wgt id='71'> +1.7802331e+01 </wgt>
<wgt id='72'> +1.8492068e+01 </wgt>
<wgt id='73'> +1.7751721e+01 </wgt>
<wgt id='74'> +1.7423521e+01 </wgt>
<wgt id='75'> +1.7634931e+01 </wgt>
<wgt id='76'> +1.7385533e+01 </wgt>
<wgt id='77'> +1.6829973e+01 </wgt>
<wgt id='78'> +1.8062689e+01 </wgt>
<wgt id='79'> +1.6842173e+01 </wgt>
<wgt id='80'> +1.7620364e+01 </wgt>
<wgt id='81'> +1.7587467e+01 </wgt>
<wgt id='82'> +1.8133482e+01 </wgt>
<wgt id='83'> +1.7297705e+01 </wgt>
<wgt id='84'> +1.8227497e+01 </wgt>
<wgt id='85'> +1.8115334e+01 </wgt>
<wgt id='86'> +1.7068425e+01 </wgt>
<wgt id='87'> +1.7390889e+01 </wgt>
<wgt id='88'> +1.7352308e+01 </wgt>
<wgt id='89'> +1.7662202e+01 </wgt>
<wgt id='90'> +1.7627284e+01 </wgt>
<wgt id='91'> +1.8459634e+01 </wgt>
<wgt id='92'> +1.7731197e+01 </wgt>
<wgt id='93'> +1.7073405e+01 </wgt>
<wgt id='94'> +1.7905364e+01 </wgt>
<wgt id='95'> +1.7412016e+01 </wgt>
<wgt id='96'> +1.7692939e+01 </wgt>
<wgt id='97'> +1.8015636e+01 </wgt>
<wgt id='98'> +1.6832125e+01 </wgt>
<wgt id='99'> +1.7469448e+01 </wgt>
<wgt id='100'> +1.8481649e+01 </wgt>
<wgt id='101'> +1.7269641e+01 </wgt>
<wgt id='102'> +1.6319112e+01 </wgt>
<wgt id='103'> +1.8202357e+01 </wgt>
<wgt id='104'> +1.7097016e+01 </wgt>
<wgt id='105'> +1.8562551e+01 </wgt>
<wgt id='106'> +1.7581198e+01 </wgt>
<wgt id='107'> +1.8403456e+01 </wgt>
<wgt id='108'> +1.7124297e+01 </wgt>
<wgt id='109'> +1.7434714e+01 </wgt>
<wgt id='110'> +1.7887507e+01 </wgt>
<wgt id='111'> +1.7523371e+01 </wgt>
<wgt id='112'> +1.7461756e+01 </wgt>
<wgt id='113'> +1.7038525e+01 </wgt>
<wgt id='114'> +1.8445580e+01 </wgt>
<wgt id='115'> +1.8163507e+01 </wgt>
<wgt id='116'> +1.6709403e+01 </wgt>
<wgt id='117'> +1.7905712e+01 </wgt>
<wgt id='118'> +1.7172514e+01 </wgt>
<wgt id='119'> +1.7451721e+01 </wgt>
<wgt id='120'> +1.7837775e+01 </wgt>
<wgt id='121'> +1.7649636e+01 </wgt>
<wgt id='122'> +1.7522606e+01 </wgt>
<wgt id='123'> +1.7351382e+01 </wgt>
<wgt id='124'> +1.7556168e+01 </wgt>
<wgt id='125'> +1.7752806e+01 </wgt>
<wgt id='126'> +1.7672143e+01 </wgt>
<wgt id='127'> +1.7639400e+01 </wgt>
<wgt id='128'> +1.6894870e+01 </wgt>
<wgt id='129'> +1.8987197e+01 </wgt>
<wgt id='130'> +1.7160323e+01 </wgt>
<wgt id='131'> +1.8470044e+01 </wgt>
<wgt id='132'> +1.7155924e+01 </wgt>
<wgt id='133'> +1.6937717e+01 </wgt>
<wgt id='134'> +1.6812889e+01 </wgt>
<wgt id='135'> +1.7900843e+01 </wgt>
<wgt id='136'> +1.6872711e+01 </wgt>
<wgt id='137'> +1.6439403e+01 </wgt>
<wgt id='138'> +1.5444291e+01 </wgt>
<wgt id='139'> +1.7600394e+01 </wgt>
<wgt id='140'> +1.8655273e+01 </wgt>
<wgt id='141'> +1.7282019e+01 </wgt>
<wgt id='142'> +1.8325126e+01 </wgt>
<wgt id='143'> +1.7334728e+01 </wgt>
<wgt id='144'> +1.8084870e+01 </wgt>
<wgt id='145'> +1.7496575e+01 </wgt>
</rwgt>
</event>
<event>
 3      1 +1.7556000e+01 1.25000000e+02 7.54677100e-03 1.23506900e-01
       21 -1    0    0  502  501 +0.0000000000e+00 +0.0000000000e+00 +2.0790026507e+01 2.0790026507e+01 0.0000000000e+00 0.0000e+00 1.0000e+00
       21 -1    0    0  501  502 -0.0000000000e+00 -0.0000000000e+00 -1.8789057333e+02 1.8789057333e+02 0.0000000000e+00 0.0000e+00 1.0000e+00
       25  1    1    2    0    0 +0.0000000000e+00 +0.0000000000e+00 -1.6710054683e+02 2.0868059984e+02 1.2500000000e+02 0.0000e+00 0.0000e+00
<mgrwt>
<rscale>  0 0.12500000E+03</rscale>
<asrwt>0</asrwt>
<pdfrwt beam="1">  1       21 0.31984656E-02 0.12500000E+03</pdfrwt>
<pdfrwt beam="2">  1       21 0.28906242E-01 0.12500000E+03</pdfrwt>
<totfact> 0.63998619E+06</totfact>
</mgrwt>
<rwgt>
<wgt id='1'> +1.6731127e+01 </wgt>
<wgt id='2'> +0.0000000e+00 </wgt>
<wgt id='3'> +1.6731127e+01 </wgt>
<wgt id='4'> +1.5524532e+01 </wgt>
<wgt id='5'> +1.6731127e+01 </wgt>
<wgt id='6'> +1.7556000e+01 </wgt>
<wgt id='7'> +0.0000000e+00 </wgt>
<wgt id='8'> +1.7556000e+01 </wgt>
<wgt id='9'> +1.6731127e+01 </wgt>
<wgt id='10'> +1.7556000e+01 </wgt>
<wgt id='11'> +1.7940653e+01 </wgt>
<wgt id='12'> +0.0000000e+00 </wgt>
<wgt id='13'> +1.7940653e+01 </wgt>
<wgt id='14'> +1.7556000e+01 </wgt>
<wgt id='15'> +1.7940653e+01 </wgt>
<wgt id='16'> +1.6731127e+01 </wgt>
<wgt id='17'> +0.0000000e+00 </wgt>
<wgt id='18'> +1.6731127e+01 </wgt>
<wgt id='19'> +1.5524532e+01 </wgt>
<wgt id='20'> +1.6731127e+01 </wgt>
<wgt id='21'> +0.0000000e+00 </wgt>
<wgt id='22'> +1.7556000e+01 </wgt>
<wgt id='23'> +1.6731127e+01 </wgt>
<wgt id='24'> +1.7556000e+01 </wgt>
<wgt id='25'> +1.7940653e+01 </wgt>
<wgt id='26'> +0.0000000e+00 </wgt>
<wgt id='27'> +1.7940653e+01 </wgt>
<wgt id='28'> +1.7556000e+01 </wgt>
<wgt id='29'> +1.7940653e+01 </wgt>
<wgt id='30'> +1.6731127e+01 </wgt>
<wgt id='31'> +0.0000000e+00 </wgt>
<wgt id='32'> +1.6731127e+01 </wgt>
<wgt id='33'> +1.5524532e+01 </wgt>
<wgt id='34'> +1.6731127e+01 </wgt>
<wgt id='35'> +1.7556000e+01 </wgt>
<wgt id='36'> +0.0000000e+00 </wgt>
<wgt id='37'> +1.7556000e+01 </wgt>
<wgt id='38'> +1.6731127e+01 </wgt>
<wgt id='39'> +1.7556000e+01 </wgt>
<wgt id='40'> +1.7940653e+01 </wgt>
<wgt id='41'> +0.0000000e+00 </wgt>
<wgt id='42'> +1.7940653e+01 </wgt>
<wgt id='43'> +1.7556000e+01 </wgt>
<wgt id='44'> +1.7940653e+01 </wgt>
<wgt id='45'> +1.7556000e+01 </wgt>
<wgt id='46'> +1.7147621e+01 </wgt>
<wgt id='47'> +1.7571587e+01 </wgt>
<wgt id='48'> +1.7282706e+01 </wgt>
<wgt id='49'> +1.7649916e+01 </wgt>
<wgt id='50'> +1.8224340e+01 </wgt>
<wgt id='51'> +1.7312521e+01 </wgt>
<wgt id='52'> +1.7432660e+01 </wgt>
<wgt id='53'> +1.7863626e+01 </wgt>
<wgt id='54'> +1.7630988e+01 </wgt>
<wgt id='55'> +1.6478834e+01 </wgt>
<wgt id='56'> +1.7213517e+01 </wgt>
<wgt id='57'> +1.7305857e+01 </wgt>
<wgt id='58'> +1.8257328e+01 </wgt>
<wgt id='59'> +1.7112159e+01 </wgt>
<wgt id='60'> +1.7036095e+01 </wgt>
<wgt id='61'> +1.7933700e+01 </wgt>
<wgt id='62'> +1.7308513e+01 </wgt>
<wgt id='63'> +1.7630427e+01 </wgt>
<wgt id='64'> +1.7919277e+01 </wgt>
<wgt id='65'> +1.9282958e+01 </wgt>
<wgt id='66'> +1.7110094e+01 </wgt>
<wgt id='67'> +1.7648371e+01 </wgt>
<wgt id='68'> +1.8040202e+01 </wgt>
<wgt id='69'> +1.6448211e+01 </wgt>
<wgt id='70'> +1.7467257e+01 </wgt>
<wgt id='71'> +1.7759604e+01 </wgt>
<wgt id='72'> +1.8258584e+01 </wgt>
<wgt id='73'> +1.7749869e+01 </wgt>
<wgt id='74'> +1.7529749e+01 </wgt>
<wgt id='75'> +1.7681523e+01 </wgt>
<wgt id='76'> +1.7305752e+01 </wgt>
<wgt id='77'> +1.6908770e+01 </wgt>
<wgt id='78'> +1.7983051e+01 </wgt>
<wgt id='79'> +1.6916933e+01 </wgt>
<wgt id='80'> +1.7571219e+01 </wgt>
<wgt id='81'> +1.7525867e+01 </wgt>
<wgt id='82'> +1.8110219e+01 </wgt>
<wgt id='83'> +1.7340923e+01 </wgt>
<wgt id='84'> +1.8251778e+01 </wgt>
<wgt id='85'> +1.8182045e+01 </wgt>
<wgt id='86'> +1.7132985e+01 </wgt>
<wgt id='87'> +1.7440338e+01 </wgt>
<wgt id='88'> +1.7361420e+01 </wgt>
<wgt id='89'> +1.7770963e+01 </wgt>
<wgt id='90'> +1.7670768e+01 </wgt>
<wgt id='91'> +1.8451566e+01 </wgt>
<wgt id='92'> +1.7439675e+01 </wgt>
<wgt id='93'> +1.7164403e+01 </wgt>
<wgt id='94'> +1.7836477e+01 </wgt>
<wgt id='95'> +1.7311262e+01 </wgt>
<wgt id='96'> +1.7848869e+01 </wgt>
<wgt id='97'> +1.7961334e+01 </wgt>
<wgt id='98'> +1.6818840e+01 </wgt>
<wgt id='99'> +1.7497189e+01 </wgt>
<wgt id='100'> +1.8347924e+01 </wgt>
<wgt id='101'> +1.7439807e+01 </wgt>
<wgt id='102'> +1.6465833e+01 </wgt>
<wgt id='103'> +1.8313331e+01 </wgt>
<wgt id='104'> +1.7123453e+01 </wgt>
<wgt id='105'> +1.8454425e+01 </wgt>
<wgt id='106'> +1.7376699e+01 </wgt>
<wgt id='107'> +1.8233786e+01 </wgt>
<wgt id='108'> +1.6928617e+01 </wgt>
<wgt id='109'> +1.7326947e+01 </wgt>
<wgt id='110'> +1.7881259e+01 </wgt>
<wgt id='111'> +1.7434848e+01 </wgt>
<wgt id='112'> +1.7367237e+01 </wgt>
<wgt id='113'> +1.6956632e+01 </wgt>
<wgt id='114'> +1.8264097e+01 </wgt>
<wgt id='115'> +1.8000503e+01 </wgt>
<wgt id='116'> +1.6853692e+01 </wgt>
<wgt id='117'> +1.7862820e+01 </wgt>
<wgt id='118'> +1.7323021e+01 </wgt>
<wgt id='119'> +1.7379605e+01 </wgt>
<wgt id='120'> +1.7758568e+01 </wgt>
<wgt id='121'> +1.7593888e+01 </wgt>
<wgt id='122'> +1.7498151e+01 </wgt>
<wgt id='123'> +1.7400550e+01 </wgt>
<wgt id='124'> +1.7691355e+01 </wgt>
<wgt id='125'> +1.7874555e+01 </wgt>
<wgt id='126'> +1.7772642e+01 </wgt>
<wgt id='127'> +1.7719250e+01 </wgt>
<wgt id='128'> +1.6795825e+01 </wgt>
<wgt id='129'> +1.9012541e+01 </wgt>
<wgt id='130'> +1.7178026e+01 </wgt>
<wgt id='131'> +1.8481990e+01 </wgt>
<wgt id='132'> +1.7201755e+01 </wgt>
<wgt id='133'> +1.7045707e+01 </wgt>
<wgt id='134'> +1.6800340e+01 </wgt>
<wgt id='135'> +1.7922153e+01 </wgt>
<wgt id='136'> +1.6894852e+01 </wgt>
<wgt id='137'> +1.6467030e+01 </wgt>
<wgt id='138'> +1.5574845e+01 </wgt>
<wgt id='139'> +1.7684756e+01 </wgt>
<wgt id='140'> +1.8609866e+01 </wgt>
<wgt id='141'> +1.7282140e+01 </wgt>
<wgt id='142'> +1.8254009e+01 </wgt>
<wgt id='143'> +1.7358300e+01 </wgt>
<wgt id='144'> +1.7999305e+01 </wgt>
<wgt id='145'> +1.7483485e+01 </wgt>
</rwgt>
</event>
<event>
 3      1 +1.7556000e+01 1.25000000e+02 7.54677100e-03 1.23506900e-01
       21 -1    0    0  502  501 +0.0000000000e+00 +0.0000000000e+00 +1.8255859503e+01 1.8255859503e+01 0.0000000000e+00 0.0000e+00 1.0000e+00
       21 -1    0    0  501  502 -0.0000000000e+00 -0.0000000000e+00 -2.1397239606e+02 2.1397239606e+02 0.0000000000e+00 0.0000e+00 1.0000e+00
       25  1    1    2    0    0 +0.0000000000e+00 +0.0000000000e+00 -1.9571653655e+02 2.3222825556e+02 1.2500000000e+02 0.0000e+00 0.0000e+00
<mgrwt>
<rscale>  0 0.12500000E+03</rscale>
<asrwt>0</asrwt>
<pdfrwt beam="1">  1       21 0.28085938E-02 0.12500000E+03</pdfrwt>
<pdfrwt beam="2">  1       21 0.32918829E-01 0.12500000E+03</pdfrwt>
<totfact> 0.61592926E+06</totfact>
</mgrwt>
<rwgt>
<wgt id='1'> +1.6751293e+01 </wgt>
<wgt id='2'> +0.0000000e+00 </wgt>
<wgt id='3'> +1.6751293e+01 </wgt>
<wgt id='4'> +1.5565156e+01 </wgt>
<wgt id='5'> +1.6751293e+01 </wgt>
<wgt id='6'> +1.7556000e+01 </wgt>
<wgt id='7'> +0.0000000e+00 </wgt>
<wgt id='8'> +1.7556000e+01 </wgt>
<wgt id='9'> +1.6751293e+01 </wgt>
<wgt id='10'> +1.7556000e+01 </wgt>
<wgt id='11'> +1.7921808e+01 </wgt>
<wgt id='12'> +0.0000000e+00 </wgt>
<wgt id='13'> +1.7921808e+01 </wgt>
<wgt id='14'> +1.7556000e+01 </wgt>
<wgt id='15'> +1.7921808e+01 </wgt>
<wgt id='16'> +1.6751293e+01 </wgt>
<wgt id='17'> +0.0000000e+00 </wgt>
<wgt id='18'> +1.6751293e+01 </wgt>
<wgt id='19'> +1.5565156e+01 </wgt>
<wgt id='20'> +1.6751293e+01 </wgt>
<wgt id='21'> +0.0000000e+00 </wgt>
<wgt id='22'> +1.7556000e+01 </wgt>
<wgt id='23'> +1.6751293e+01 </wgt>
<wgt id='24'> +1.7556000e+01 </wgt>
<wgt id='25'> +1.7921808e+01 </wgt>
<wgt id='26'> +0.0000000e+00 </wgt>
<wgt id='27'> +1.7921808e+01 </wgt>
<wgt id='28'> +1.7556000e+01 </wgt>
<wgt id='29'> +1.7921808e+01 </wgt>
<wgt id='30'> +1.6751293e+01 </wgt>
<wgt id='31'> +0.0000000e+00 </wgt>
<wgt id='32'> +1.6751293e+01 </wgt>
<wgt id='33'> +1.5565156e+01 </wgt>
<wgt id='34'> +1.6751293e+01 </wgt>
<wgt id='35'> +1.7556000e+01 </wgt>
<wgt id='36'> +0.0000000e+00 </wgt>
<wgt id='37'> +1.7556000e+01 </wgt>
<wgt id='38'> +1.6751293e+01 </wgt>
<wgt id='39'> +1.7556000e+01 </wgt>
<wgt id='40'> +1.7921808e+01 </wgt>
<wgt id='41'> +0.0000000e+00 </wgt>
<wgt id='42'> +1.7921808e+01 </wgt>
<wgt id='43'> +1.7556000e+01 </wgt>
<wgt id='44'> +1.7921808e+01 </wgt>
<wgt id='45'> +1.7556000e+01 </wgt>
<wgt id='46'> +1.7199544e+01 </wgt>
<wgt id='47'> +1.7589689e+01 </wgt>
<wgt id='48'> +1.7321424e+01 </wgt>
<wgt id='49'> +1.7669761e+01 </wgt>
<wgt id='50'> +1.8322497e+01 </wgt>
<wgt id='51'> +1.7322808e+01 </wgt>
<wgt id='52'> +1.7452284e+01 </wgt>
<wgt id='53'> +1.7813229e+01 </wgt>
<wgt id='54'> +1.7625315e+01 </wgt>
<wgt id='55'> +1.6454131e+01 </wgt>
<wgt id='56'> +1.7168564e+01 </wgt>
<wgt id='57'> +1.7288575e+01 </wgt>
<wgt id='58'> +1.8224130e+01 </wgt>
<wgt id='59'> +1.7156511e+01 </wgt>
<wgt id='60'> +1.7112624e+01 </wgt>
<wgt id='61'> +1.7855208e+01 </wgt>
<wgt id='62'> +1.7333473e+01 </wgt>
<wgt id='63'> +1.7636673e+01 </wgt>
<wgt id='64'> +1.7879578e+01 </wgt>
<wgt id='65'> +1.9263196e+01 </wgt>
<wgt id='66'> +1.7113156e+01 </wgt>
<wgt id='67'> +1.7638862e+01 </wgt>
<wgt id='68'> +1.8074160e+01 </wgt>
<wgt id='69'> +1.6500668e+01 </wgt>
<wgt id='70'> +1.7446648e+01 </wgt>
<wgt id='71'> +1.7741185e+01 </wgt>
<wgt id='72'> +1.8148602e+01 </wgt>
<wgt id='73'> +1.7747101e+01 </wgt>
<wgt id='74'> +1.7585051e+01 </wgt>
<wgt id='75'> +1.7703981e+01 </wgt>
<wgt id='76'> +1.7273287e+01 </wgt>
<wgt id='77'> +1.6952776e+01 </wgt>
<wgt id='78'> +1.7935586e+01 </wgt>
<wgt id='79'> +1.6959267e+01 </wgt>
<wgt id='80'> +1.7546406e+01 </wgt>
<wgt id='81'> +1.7495347e+01 </wgt>
<wgt id='82'> +1.8090360e+01 </wgt>
<wgt id='83'> +1.7359971e+01 </wgt>
<wgt id='84'> +1.8258070e+01 </wgt>
<wgt id='85'> +1.8206245e+01 </wgt>
<wgt id='86'> +1.7165467e+01 </wgt>
<wgt id='87'> +1.7466142e+01 </wgt>
<wgt id='88'> +1.7362928e+01 </wgt>
<wgt id='89'> +1.7825282e+01 </wgt>
<wgt id='90'> +1.7697117e+01 </wgt>
<wgt id='91'> +1.8440744e+01 </wgt>
<wgt id='92'> +1.7310179e+01 </wgt>
<wgt id='93'> +1.7210867e+01 </wgt>
<wgt id='94'> +1.7803086e+01 </wgt>
<wgt id='95'> +1.7268050e+01 </wgt>
<wgt id='96'> +1.7922217e+01 </wgt>
<wgt id='97'> +1.7932252e+01 </wgt>
<wgt id='98'> +1.6819313e+01 </wgt>
<wgt id='99'> +1.7507840e+01 </wgt>
<wgt id='100'> +1.8274573e+01 </wgt>
<wgt id='101'> +1.7531911e+01 </wgt>
<wgt id='102'> +1.6547909e+01 </wgt>
<wgt id='103'> +1.8366269e+01 </wgt>
<wgt id='104'> +1.7136035e+01 </wgt>
<wgt id='105'> +1.8400847e+01 </wgt>
<wgt id='106'> +1.7277521e+01 </wgt>
<wgt id='107'> +1.8144432e+01 </wgt>
<wgt id='108'> +1.6831195e+01 </wgt>
<wgt id='109'> +1.7273838e+01 </wgt>
<wgt id='110'> +1.7877634e+01 </wgt>
<wgt id='111'> +1.7392575e+01 </wgt>
<wgt id='112'> +1.7316302e+01 </wgt>
<wgt id='113'> +1.6918025e+01 </wgt>
<wgt id='114'> +1.8165928e+01 </wgt>
<wgt id='115'> +1.7902777e+01 </wgt>
<wgt id='116'> +1.6928337e+01 </wgt>
<wgt id='117'> +1.7834012e+01 </wgt>
<wgt id='118'> +1.7401061e+01 </wgt>
<wgt id='119'> +1.7346325e+01 </wgt>
<wgt id='120'> +1.7701703e+01 </wgt>
<wgt id='121'> +1.7568777e+01 </wgt>
<wgt id='122'> +1.7486554e+01 </wgt>
<wgt id='123'> +1.7421887e+01 </wgt>
<wgt id='124'> +1.7763383e+01 </wgt>
<wgt id='125'> +1.7939228e+01 </wgt>
<wgt id='126'> +1.7812994e+01 </wgt>
<wgt id='127'> +1.7758091e+01 </wgt>
<wgt id='128'> +1.6741853e+01 </wgt>
<wgt id='129'> +1.9023741e+01 </wgt>
<wgt id='130'> +1.7182494e+01 </wgt>
<wgt id='131'> +1.8482818e+01 </wgt>
<wgt id='132'> +1.7240311e+01 </wgt>
<wgt id='133'> +1.7104280e+01 </wgt>
<wgt id='134'> +1.6802134e+01 </wgt>
<wgt id='135'> +1.7931497e+01 </wgt>
<wgt id='136'> +1.6920577e+01 </wgt>
<wgt id='137'> +1.6482973e+01 </wgt>
<wgt id='138'> +1.5642917e+01 </wgt>
<wgt id='139'> +1.7727882e+01 </wgt>
<wgt id='140'> +1.8580292e+01 </wgt>
<wgt id='141'> +1.7282788e+01 </wgt>
<wgt id='142'> +1.8209293e+01 </wgt>
<wgt id='143'> +1.7378705e+01 </wgt>
<wgt id='144'> +1.7957922e+01 </wgt>
<wgt id='145'> +1.7478984e+01 </wgt>
</rwgt>
</event>
<event>
 3      1 +1.7556000e+01 1.25000000e+02 7.54677100e-03 1.23506900e-01
       21 -1    0    0  502  501 +0.0000000000e+00 +0.0000000000e+00 +1.0781944304e+01 1.0781944304e+01 0.0000000000e+00 0.0000e+00 -1.0000e+00
       21 -1    0    0  501  502 -0.0000000000e+00 -0.0000000000e+00 -3.6229550903e+02 3.6229550903e+02 0.0000000000e+00 0.0000e+00 -1.0000e+00
       25  1    1    2    0    0 +0.0000000000e+00 +0.0000000000e+00 -3.5151356473e+02 3.7307745334e+02 1.2500000000e+02 0.0000e+00 0.0000e+00
<mgrwt>
<rscale>  0 0.12500000E+03</rscale>
<asrwt>0</asrwt>
<pdfrwt beam="1">  1       21 0.16587606E-02 0.12500000E+03</pdfrwt>
<pdfrwt beam="2">  1       21 0.55737773E-01 0.12500000E+03</pdfrwt>
<totfact> 0.49877961E+06</totfact>
</mgrwt>
<rwgt>
<wgt id='1'> +1.6867654e+01 </wgt>
<wgt id='2'> +0.0000000e+00 </wgt>
<wgt id='3'> +1.6867654e+01 </wgt>
<wgt id='4'> +1.5798009e+01 </wgt>
<wgt id='5'> +1.6867654e+01 </wgt>
<wgt id='6'> +1.7556000e+01 </wgt>
<wgt id='7'> +0.0000000e+00 </wgt>
<wgt id='8'> +1.7556000e+01 </wgt>
<wgt id='9'> +1.6867654e+01 </wgt>
<wgt id='10'> +1.7556000e+01 </wgt>
<wgt id='11'> +1.7812011e+01 </wgt>
<wgt id='12'> +0.0000000e+00 </wgt>
<wgt id='13'> +1.7812011e+01 </wgt>
<wgt id='14'> +1.7556000e+01 </wgt>
<wgt id='15'> +1.7812011e+01 </wgt>
<wgt id='16'> +1.6867654e+01 </wgt>
<wgt id='17'> +0.0000000e+00 </wgt>
<wgt id='18'> +1.6867654e+01 </wgt>
<wgt id='19'> +1.5798009e+01 </wgt>
<wgt id='20'> +1.6867654e+01 </wgt>
<wgt id='21'> +0.0000000e+00 </wgt>
<wgt id='22'> +1.7556000e+01 </wgt>
<wgt id='23'> +1.6867654e+01 </wgt>
<wgt id='24'> +1.7556000e+01 </wgt>
<wgt id='25'> +1.7812011e+01 </wgt>
<wgt id='26'> +0.0000000e+00 </wgt>
<wgt id='27'> +1.7812011e+01 </wgt>
<wgt id='28'> +1.7556000e+01 </wgt>
<wgt id='29'> +1.7812011e+01 </wgt>
<wgt id='30'> +1.6867654e+01 </wgt>
<wgt id='31'> +0.0000000e+00 </wgt>
<wgt id='32'> +1.6867654e+01 </wgt>
<wgt id='33'> +1.5798009e+01 </wgt>
<wgt id='34'> +1.6867654e+01 </wgt>
<wgt id='35'> +1.7556000e+01 </wgt>
<wgt id='36'> +0.0000000e+00 </wgt>
<wgt id='37'> +1.7556000e+01 </wgt>
<wgt id='38'> +1.6867654e+01 </wgt>
<wgt id='39'> +1.7556000e+01 </wgt>
<wgt id='40'> +1.7812011e+01 </wgt>
<wgt id='41'> +0.0000000e+00 </wgt>
<wgt id='42'> +1.7812011e+01 </wgt>
<wgt id='43'> +1.7556000e+01 </wgt>
<wgt id='44'> +1.7812011e+01 </wgt>
<wgt id='45'> +1.7556000e+01 </wgt>
<wgt id='46'> +1.7486235e+01 </wgt>
<wgt id='47'> +1.7653840e+01 </wgt>
<wgt id='48'> +1.7508335e+01 </wgt>
<wgt id='49'> +1.7726563e+01 </wgt>
<wgt id='50'> +1.8818582e+01 </wgt>
<wgt id='51'> +1.7358021e+01 </wgt>
<wgt id='52'> +1.7576685e+01 </wgt>
<wgt id='53'> +1.7513434e+01 </wgt>
<wgt id='54'> +1.7609265e+01 </wgt>
<wgt id='55'> +1.6489573e+01 </wgt>
<wgt id='56'> +1.6898821e+01 </wgt>
<wgt id='57'> +1.7300966e+01 </wgt>
<wgt id='58'> +1.8003936e+01 </wgt>
<wgt id='59'> +1.7506216e+01 </wgt>
<wgt id='60'> +1.7566797e+01 </wgt>
<wgt id='61'> +1.7247855e+01 </wgt>
<wgt id='62'> +1.7434983e+01 </wgt>
<wgt id='63'> +1.7658355e+01 </wgt>
<wgt id='64'> +1.7650129e+01 </wgt>
<wgt id='65'> +1.9062057e+01 </wgt>
<wgt id='66'> +1.7133887e+01 </wgt>
<wgt id='67'> +1.7584183e+01 </wgt>
<wgt id='68'> +1.8284478e+01 </wgt>
<wgt id='69'> +1.6787179e+01 </wgt>
<wgt id='70'> +1.7351229e+01 </wgt>
<wgt id='71'> +1.7654267e+01 </wgt>
<wgt id='72'> +1.7661213e+01 </wgt>
<wgt id='73'> +1.7691292e+01 </wgt>
<wgt id='74'> +1.7896251e+01 </wgt>
<wgt id='75'> +1.7808075e+01 </wgt>
<wgt id='76'> +1.7186429e+01 </wgt>
<wgt id='77'> +1.7206308e+01 </wgt>
<wgt id='78'> +1.7606791e+01 </wgt>
<wgt id='79'> +1.7223524e+01 </wgt>
<wgt id='80'> +1.7393893e+01 </wgt>
<wgt id='81'> +1.7346716e+01 </wgt>
<wgt id='82'> +1.7883116e+01 </wgt>
<wgt id='83'> +1.7423735e+01 </wgt>
<wgt id='84'> +1.8225185e+01 </wgt>
<wgt id='85'> +1.8219920e+01 </wgt>
<wgt id='86'> +1.7334159e+01 </wgt>
<wgt id='87'> +1.7602421e+01 </wgt>
<wgt id='88'> +1.7331868e+01 </wgt>
<wgt id='89'> +1.8063165e+01 </wgt>
<wgt id='90'> +1.7860876e+01 </wgt>
<wgt id='91'> +1.8294063e+01 </wgt>
<wgt id='92'> +1.6771373e+01 </wgt>
<wgt id='93'> +1.7450585e+01 </wgt>
<wgt id='94'> +1.7612905e+01 </wgt>
<wgt id='95'> +1.7159130e+01 </wgt>
<wgt id='96'> +1.8220172e+01 </wgt>
<wgt id='97'> +1.7746341e+01 </wgt>
<wgt id='98'> +1.6897411e+01 </wgt>
<wgt id='99'> +1.7500079e+01 </wgt>
<wgt id='100'> +1.7796063e+01 </wgt>
<wgt id='101'> +1.8080253e+01 </wgt>
<wgt id='102'> +1.7066270e+01 </wgt>
<wgt id='103'> +1.8586378e+01 </wgt>
<wgt id='104'> +1.7207020e+01 </wgt>
<wgt id='105'> +1.8145536e+01 </wgt>
<wgt id='106'> +1.6820433e+01 </wgt>
<wgt id='107'> +1.7647719e+01 </wgt>
<wgt id='108'> +1.6354655e+01 </wgt>
<wgt id='109'> +1.7036838e+01 </wgt>
<wgt id='110'> +1.7837982e+01 </wgt>
<wgt id='111'> +1.7210131e+01 </wgt>
<wgt id='112'> +1.7040120e+01 </wgt>
<wgt id='113'> +1.6765070e+01 </wgt>
<wgt id='114'> +1.7664014e+01 </wgt>
<wgt id='115'> +1.7309515e+01 </wgt>
<wgt id='116'> +1.7344684e+01 </wgt>
<wgt id='117'> +1.7631096e+01 </wgt>
<wgt id='118'> +1.7820074e+01 </wgt>
<wgt id='119'> +1.7230014e+01 </wgt>
<wgt id='120'> +1.7339114e+01 </wgt>
<wgt id='121'> +1.7483023e+01 </wgt>
<wgt id='122'> +1.7446669e+01 </wgt>
<wgt id='123'> +1.7499094e+01 </wgt>
<wgt id='124'> +1.8182830e+01 </wgt>
<wgt id='125'> +1.8331491e+01 </wgt>
<wgt id='126'> +1.7949760e+01 </wgt>
<wgt id='127'> +1.7928696e+01 </wgt>
<wgt id='128'> +1.6433433e+01 </wgt>
<wgt id='129'> +1.9051529e+01 </wgt>
<wgt id='130'> +1.7144802e+01 </wgt>
<wgt id='131'> +1.8412831e+01 </wgt>
<wgt id='132'> +1.7596683e+01 </wgt>
<wgt id='133'> +1.7455984e+01 </wgt>
<wgt id='134'> +1.6897625e+01 </wgt>
<wgt id='135'> +1.7948402e+01 </wgt>
<wgt id='136'> +1.7240658e+01 </wgt>
<wgt id='137'> +1.6591766e+01 </wgt>
<wgt id='138'> +1.6023859e+01 </wgt>
<wgt id='139'> +1.7950120e+01 </wgt>
<wgt id='140'> +1.8356313e+01 </wgt>
<wgt id='141'> +1.7313956e+01 </wgt>
<wgt id='142'> +1.7841725e+01 </wgt>
<wgt id='143'> +1.7557091e+01 </wgt>
<wgt id='144'> +1.7732620e+01 </wgt>
<wgt id='145'> +1.7456411e+01 </wgt>
</rwgt>
</event>
<event>
 3      1 +1.7556000e+01 1.25000000e+02 7.54677100e-03 1.23506900e-01
       21 -1    0    0  502  501 +0.0000000000e+00 +0.0000000000e+00 +4.8553865036e+01 4.8553865036e+01 0.0000000000e+00 0.0000e+00 1.0000e+00
       21 -1    0    0  501  502 -0.0000000000e+00 -0.0000000000e+00 -8.0451885697e+01 8.0451885697e+01 0.0000000000e+00 0.0000e+00 1.0000e+00
       25  1    1    2    0    0 +0.0000000000e+00 +0.0000000000e+00 -3.1898020662e+01 1.2900575073e+02 1.2500000000e+02 0.0000e+00 0.0000e+00
<mgrwt>
<rscale>  0 0.12500000E+03</rscale>
<asrwt>0</asrwt>
<pdfrwt beam="1">  1       21 0.74698255E-02 0.12500000E+03</pdfrwt>
<pdfrwt beam="2">  1       21 0.12377213E-01 0.12500000E+03</pdfrwt>
<totfact> 0.73498108E+06</totfact>
</mgrwt>
<rwgt>
<wgt id='1'> +1.6650108e+01 </wgt>
<wgt id='2'> +0.0000000e+00 </wgt>
<wgt id='3'> +1.6650108e+01 </wgt>
<wgt id='4'> +1.5361793e+01 </wgt>
<wgt id='5'> +1.6650108e+01 </wgt>
<wgt id='6'> +1.7556000e+01 </wgt>
<wgt id='7'> +0.0000000e+00 </wgt>
<wgt id='8'> +1.7556000e+01 </wgt>
<wgt id='9'> +1.6650108e+01 </wgt>
<wgt id='10'> +1.7556000e+01 </wgt>
<wgt id='11'> +1.8016707e+01 </wgt>
<wgt id='12'> +0.0000000e+00 </wgt>
<wgt id='13'> +1.8016707e+01 </wgt>
<wgt id='14'> +1.7556000e+01 </wgt>
<wgt id='15'> +1.8016707e+01 </wgt>
<wgt id='16'> +1.6650108e+01 </wgt>
<wgt id='17'> +0.0000000e+00 </wgt>
<wgt id='18'> +1.6650108e+01 </wgt>
<wgt id='19'> +1.5361793e+01 </wgt>
<wgt id='20'> +1.6650108e+01 </wgt>
<wgt id='21'> +0.0000000e+00 </wgt>
<wgt id='22'> +1.7556000e+01 </wgt>
<wgt id='23'> +1.6650108e+01 </wgt>
<wgt id='24'> +1.7556000e+01 </wgt>
<wgt id='25'> +1.8016707e+01 </wgt>
<wgt id='26'> +0.0000000e+00 </wgt>
<wgt id='27'> +1.8016707e+01 </wgt>
<wgt id='28'> +1.7556000e+01 </wgt>
<wgt id='29'> +1.8016707e+01 </wgt>
<wgt id='30'> +1.6650108e+01 </wgt>
<wgt id='31'> +0.0000000e+00 </wgt>
<wgt id='32'> +1.6650108e+01 </wgt>
<wgt id='33'> +1.5361793e+01 </wgt>
<wgt id='34'> +1.6650108e+01 </wgt>
<wgt id='35'> +1.7556000e+01 </wgt>
<wgt id='36'> +0.0000000e+00 </wgt>
<wgt id='37'> +1.7556000e+01 </wgt>
<wgt id='38'> +1.6650108e+01 </wgt>
<wgt id='39'> +1.7556000e+01 </wgt>
<wgt id='40'> +1.8016707e+01 </wgt>
<wgt id='41'> +0.0000000e+00 </wgt>
<wgt id='42'> +1.8016707e+01 </wgt>
<wgt id='43'> +1.7556000e+01 </wgt>
<wgt id='44'> +1.8016707e+01 </wgt>
<wgt id='45'> +1.7556000e+01 </wgt>
<wgt id='46'> +1.6968127e+01 </wgt>
<wgt id='47'> +1.7491488e+01 </wgt>
<wgt id='48'> +1.7136614e+01 </wgt>
<wgt id='49'> +1.7562846e+01 </wgt>
<wgt id='50'> +1.7851688e+01 </wgt>
<wgt id='51'> +1.7273190e+01 </wgt>
<wgt id='52'> +1.7394186e+01 </wgt>
<wgt id='53'> +1.8017971e+01 </wgt>
<wgt id='54'> +1.7641598e+01 </wgt>
<wgt id='55'> +1.6640869e+01 </wgt>
<wgt id='56'> +1.7360526e+01 </wgt>
<wgt id='57'> +1.7412440e+01 </wgt>
<wgt id='58'> +1.8364450e+01 </wgt>
<wgt id='59'> +1.7014523e+01 </wgt>
<wgt id='60'> +1.6799341e+01 </wgt>
<wgt id='61'> +1.8140913e+01 </wgt>
<wgt id='62'> +1.7210970e+01 </wgt>
<wgt id='63'> +1.7599445e+01 </wgt>
<wgt id='64'> +1.8029744e+01 </wgt>
<wgt id='65'> +1.9310960e+01 </wgt>
<wgt id='66'> +1.7102026e+01 </wgt>
<wgt id='67'> +1.7683723e+01 </wgt>
<wgt id='68'> +1.7922748e+01 </wgt>
<wgt id='69'> +1.6258180e+01 </wgt>
<wgt id='70'> +1.7547752e+01 </wgt>
<wgt id='71'> +1.7846958e+01 </wgt>
<wgt id='72'> +1.8705587e+01 </wgt>
<wgt id='73'> +1.7750337e+01 </wgt>
<wgt id='74'> +1.7335996e+01 </wgt>
<wgt id='75'> +1.7592322e+01 </wgt>
<wgt id='76'> +1.7468701e+01 </wgt>
<wgt id='77'> +1.6771447e+01 </wgt>
<wgt id='78'> +1.8116821e+01 </wgt>
<wgt id='79'> +1.6787025e+01 </wgt>
<wgt id='80'> +1.7663468e+01 </wgt>
<wgt id='81'> +1.7642014e+01 </wgt>
<wgt id='82'> +1.8139507e+01 </wgt>
<wgt id='83'> +1.7255947e+01 </wgt>
<wgt id='84'> +1.8196983e+01 </wgt>
<wgt id='85'> +1.8040882e+01 </wgt>
<wgt id='86'> +1.7013185e+01 </wgt>
<wgt id='87'> +1.7350557e+01 </wgt>
<wgt id='88'> +1.7339871e+01 </wgt>
<wgt id='89'> +1.7568998e+01 </wgt>
<wgt id='90'> +1.7598682e+01 </wgt>
<wgt id='91'> +1.8455260e+01 </wgt>
<wgt id='92'> +1.8016252e+01 </wgt>
<wgt id='93'> +1.6996757e+01 </wgt>
<wgt id='94'> +1.7968903e+01 </wgt>
<wgt id='95'> +1.7510406e+01 </wgt>
<wgt id='96'> +1.7551469e+01 </wgt>
<wgt id='97'> +1.8059554e+01 </wgt>
<wgt id='98'> +1.6855923e+01 </wgt>
<wgt id='99'> +1.7439765e+01 </wgt>
<wgt id='100'> +1.8586526e+01 </wgt>
<wgt id='101'> +1.7136873e+01 </wgt>
<wgt id='102'> +1.6208856e+01 </wgt>
<wgt id='103'> +1.8103242e+01 </wgt>
<wgt id='104'> +1.7073118e+01 </wgt>
<wgt id='105'> +1.8656904e+01 </wgt>
<wgt id='106'> +1.7762374e+01 </wgt>
<wgt id='107'> +1.8541085e+01 </wgt>
<wgt id='108'> +1.7293435e+01 </wgt>
<wgt id='109'> +1.7527503e+01 </wgt>
<wgt id='110'> +1.7892632e+01 </wgt>
<wgt id='111'> +1.7602508e+01 </wgt>
<wgt id='112'> +1.7536022e+01 </wgt>
<wgt id='113'> +1.7111533e+01 </wgt>
<wgt id='114'> +1.8583044e+01 </wgt>
<wgt id='115'> +1.8267666e+01 </wgt>
<wgt id='116'> +1.6589602e+01 </wgt>
<wgt id='117'> +1.7926803e+01 </wgt>
<wgt id='118'> +1.7047908e+01 </wgt>
<wgt id='119'> +1.7518294e+01 </wgt>
<wgt id='120'> +1.7870500e+01 </wgt>
<wgt id='121'> +1.7702180e+01 </wgt>
<wgt id='122'> +1.7543999e+01 </wgt>
<wgt id='123'> +1.7302513e+01 </wgt>
<wgt id='124'> +1.7448797e+01 </wgt>
<wgt id='125'> +1.7654933e+01 </wgt>
<wgt id='126'> +1.7556348e+01 </wgt>
<wgt id='127'> +1.7568999e+01 </wgt>
<wgt id='128'> +1.6971222e+01 </wgt>
<wgt id='129'> +1.8964213e+01 </wgt>
<wgt id='130'> +1.7137811e+01 </wgt>
<wgt id='131'> +1.8451479e+01 </wgt>
<wgt id='132'> +1.7146606e+01 </wgt>
<wgt id='133'> +1.6852954e+01 </wgt>
<wgt id='134'> +1.6839484e+01 </wgt>
<wgt id='135'> +1.7880624e+01 </wgt>
<wgt id='136'> +1.6879307e+01 </wgt>
<wgt id='137'> +1.6419278e+01 </wgt>
<wgt id='138'> +1.5335852e+01 </wgt>
<wgt id='139'> +1.7529557e+01 </wgt>
<wgt id='140'> +1.8681470e+01 </wgt>
<wgt id='141'> +1.7282975e+01 </wgt>
<wgt id='142'> +1.8370580e+01 </wgt>
<wgt id='143'> +1.7332614e+01 </wgt>
<wgt id='144'> +1.8164009e+01 </wgt>
<wgt id='145'> +1.7511998e+01 </wgt>
</rwgt>
</event>
<event>
 3      1 +1.7556000e+01 1.25000000e+02 7.54677100e-03 1.23506900e-01
       21 -1    0    0  502  501 +0.0000000000e+00 +0.0000000000e+00 +1.5228032173e+03 1.5228032173e+03 0.0000000000e+00 0.0000e+00 1.0000e+00
       21 -1    0    0  501  502 -0.0000000000e+00 -0.0000000000e+00 -2.5651705720e+00 2.5651705720e+00 0.0000000000e+00 0.0000e+00 1.0000e+00
       25  1    1    2    0    0 +0.0000000000e+00 +0.0000000000e+00 +1.5202380467e+03 1.5253683879e+03 1.2500000000e+02 0.0000e+00 0.0000e+00
<mgrwt>
<rscale>  0 0.12500000E+03</rscale>
<asrwt>0</asrwt>
<pdfrwt beam="1">  1       21 0.23427670E+00 0.12500000E+03</pdfrwt>
<pdfrwt beam="2">  1       21 0.39464284E-03 0.12500000E+03</pdfrwt>
<totfact> 0.13620865E+06</totfact>
</mgrwt>
<rwgt>
<wgt id='1'> +1.8042742e+01 </wgt>
<wgt id='2'> +0.0000000e+00 </wgt>
<wgt id='3'> +1.8042742e+01 </wgt>
<wgt id='4'> +1.8213370e+01 </wgt>
<wgt id='5'> +1.8042742e+01 </wgt>
<wgt id='6'> +1.7556000e+01 </wgt>
<wgt id='7'> +0.0000000e+00 </wgt>
<wgt id='8'> +1.7556000e+01 </wgt>
<wgt id='9'> +1.8042742e+01 </wgt>
<wgt id='10'> +1.7556000e+01 </wgt>
<wgt id='11'> +1.6763367e+01 </wgt>
<wgt id='12'> +0.0000000e+00 </wgt>
<wgt id='13'> +1.6763367e+01 </wgt>
<wgt id='14'> +1.7556000e+01 </wgt>
<wgt id='15'> +1.6763367e+01 </wgt>
<wgt id='16'> +1.8042742e+01 </wgt>
<wgt id='17'> +0.0000000e+00 </wgt>
<wgt id='18'> +1.8042742e+01 </wgt>
<wgt id='19'> +1.8213370e+01 </wgt>
<wgt id='20'> +1.8042742e+01 </wgt>
<wgt id='21'> +0.0000000e+00 </wgt>
<wgt id='22'> +1.7556000e+01 </wgt>
<wgt id='23'> +1.8042742e+01 </wgt>
<wgt id='24'> +1.7556000e+01 </wgt>
<wgt id='25'> +1.6763367e+01 </wgt>
<wgt id='26'> +0.0000000e+00 </wgt>
<wgt id='27'> +1.6763367e+01 </wgt>
<wgt id='28'> +1.7556000e+01 </wgt>
<wgt id='29'> +1.6763367e+01 </wgt>
<wgt id='30'> +1.8042742e+01 </wgt>
<wgt id='31'> +0.0000000e+00 </wgt>
<wgt id='32'> +1.8042742e+01 </wgt>
<wgt id='33'> +1.8213370e+01 </wgt>
<wgt id='34'> +1.8042742e+01 </wgt>
<wgt id='35'> +1.7556000e+01 </wgt>
<wgt id='36'> +0.0000000e+00 </wgt>
<wgt id='37'> +1.7556000e+01 </wgt>
<wgt id='38'> +1.8042742e+01 </wgt>
<wgt id='39'> +1.7556000e+01 </wgt>
<wgt id='40'> +1.6763367e+01 </wgt>
<wgt id='41'> +0.0000000e+00 </wgt>
<wgt id='42'> +1.6763367e+01 </wgt>
<wgt id='43'> +1.7556000e+01 </wgt>
<wgt id='44'> +1.6763367e+01 </wgt>
<wgt id='45'> +1.7556000e+01 </wgt>
<wgt id='46'> +1.8047584e+01 </wgt>
<wgt id='47'> +1.8212907e+01 </wgt>
<wgt id='48'> +1.7631936e+01 </wgt>
<wgt id='49'> +1.6151976e+01 </wgt>
<wgt id='50'> +1.9458634e+01 </wgt>
<wgt id='51'> +1.6489062e+01 </wgt>
<wgt id='52'> +1.5955946e+01 </wgt>
<wgt id='53'> +1.7653744e+01 </wgt>
<wgt id='54'> +1.8725081e+01 </wgt>
<wgt id='55'> +2.1323826e+01 </wgt>
<wgt id='56'> +1.7383984e+01 </wgt>
<wgt id='57'> +1.8905490e+01 </wgt>
<wgt id='58'> +1.5482595e+01 </wgt>
<wgt id='59'> +1.9396191e+01 </wgt>
<wgt id='60'> +1.8077892e+01 </wgt>
<wgt id='61'> +1.4518709e+01 </wgt>
<wgt id='62'> +1.5923340e+01 </wgt>
<wgt id='63'> +1.8806191e+01 </wgt>
<wgt id='64'> +1.7799910e+01 </wgt>
<wgt id='65'> +1.4585365e+01 </wgt>
<wgt id='66'> +1.7897189e+01 </wgt>
<wgt id='67'> +1.7408902e+01 </wgt>
<wgt id='68'> +2.1740344e+01 </wgt>
<wgt id='69'> +1.9790075e+01 </wgt>
<wgt id='70'> +1.9891393e+01 </wgt>
<wgt id='71'> +1.5367566e+01 </wgt>
<wgt id='72'> +1.5473687e+01 </wgt>
<wgt id='73'> +1.5904262e+01 </wgt>
<wgt id='74'> +2.1189486e+01 </wgt>
<wgt id='75'> +2.0349828e+01 </wgt>
<wgt id='76'> +1.8156382e+01 </wgt>
<wgt id='77'> +1.6492153e+01 </wgt>
<wgt id='78'> +1.4552702e+01 </wgt>
<wgt id='79'> +2.0043456e+01 </wgt>
<wgt id='80'> +1.4772389e+01 </wgt>
<wgt id='81'> +1.8503640e+01 </wgt>
<wgt id='82'> +1.7279667e+01 </wgt>
<wgt id='83'> +1.7058795e+01 </wgt>
<wgt id='84'> +1.5754994e+01 </wgt>
<wgt id='85'> +1.5231655e+01 </wgt>
<wgt id='86'> +1.8996675e+01 </wgt>
<wgt id='87'> +1.7218761e+01 </wgt>
<wgt id='88'> +1.6700232e+01 </wgt>
<wgt id='89'> +1.3954619e+01 </wgt>
<wgt id='90'> +1.5633890e+01 </wgt>
<wgt id='91'> +1.3991699e+01 </wgt>
<wgt id='92'> +1.6598145e+01 </wgt>
<wgt id='93'> +1.8312813e+01 </wgt>
<wgt id='94'> +1.5882426e+01 </wgt>
<wgt id='95'> +1.8564385e+01 </wgt>
<wgt id='96'> +1.8249440e+01 </wgt>
<wgt id='97'> +1.5294609e+01 </wgt>
<wgt id='98'> +2.0000655e+01 </wgt>
<wgt id='99'> +1.4408161e+01 </wgt>
<wgt id='100'> +1.2333051e+01 </wgt>
<wgt id='101'> +2.0679336e+01 </wgt>
<wgt id='102'> +2.0584008e+01 </wgt>
<wgt id='103'> +1.5779613e+01 </wgt>
<wgt id='104'> +1.8980223e+01 </wgt>
<wgt id='105'> +1.7453207e+01 </wgt>
<wgt id='106'> +1.7602994e+01 </wgt>
<wgt id='107'> +1.7260822e+01 </wgt>
<wgt id='108'> +1.6718711e+01 </wgt>
<wgt id='109'> +1.7804709e+01 </wgt>
<wgt id='110'> +1.5652218e+01 </wgt>
<wgt id='111'> +1.6825119e+01 </wgt>
<wgt id='112'> +1.8762946e+01 </wgt>
<wgt id='113'> +2.0155092e+01 </wgt>
<wgt id='114'> +1.8272255e+01 </wgt>
<wgt id='115'> +1.5883626e+01 </wgt>
<wgt id='116'> +1.9789513e+01 </wgt>
<wgt id='117'> +1.7228963e+01 </wgt>
<wgt id='118'> +1.8132469e+01 </wgt>
<wgt id='119'> +2.0120751e+01 </wgt>
<wgt id='120'> +1.7490713e+01 </wgt>
<wgt id='121'> +1.7142039e+01 </wgt>
<wgt id='122'> +1.7067507e+01 </wgt>
<wgt id='123'> +1.6231492e+01 </wgt>
<wgt id='124'> +1.9465566e+01 </wgt>
<wgt id='125'> +2.2967251e+01 </wgt>
<wgt id='126'> +1.6794489e+01 </wgt>
<wgt id='127'> +1.6397576e+01 </wgt>
<wgt id='128'> +1.7349148e+01 </wgt>
<wgt id='129'> +1.6679270e+01 </wgt>
<wgt id='130'> +1.7511625e+01 </wgt>
<wgt id='131'> +1.5149221e+01 </wgt>
<wgt id='132'> +1.9219951e+01 </wgt>
<wgt id='133'> +1.9844477e+01 </wgt>
<wgt id='134'> +1.9079616e+01 </wgt>
<wgt id='135'> +1.6536432e+01 </wgt>
<wgt id='136'> +2.1723235e+01 </wgt>
<wgt id='137'> +1.9492550e+01 </wgt>
<wgt id='138'> +1.9188982e+01 </wgt>
<wgt id='139'> +1.8416776e+01 </wgt>
<wgt id='140'> +1.6764486e+01 </wgt>
<wgt id='141'> +2.0676773e+01 </wgt>
<wgt id='142'> +1.0604325e+01 </wgt>
<wgt id='143'> +1.7820582e+01 </wgt>
<wgt id='144'> +1.5370176e+01 </wgt>
<wgt id='145'> +1.5578445e+01 </wgt>
</rwgt>
</event>
<event>
 3      1 +1.7556000e+01 1.25000000e+02 7.54677100e-03 1.23506900e-01
       21 -1    0    0  502  501 +0.0000000000e+00 +0.0000000000e+00 +1.3914213499e+03 1.3914213499e+03 0.0000000000e+00 0.0000e+00 -1.0000e+00
       21 -1    0    0  501  502 -0.0000000000e+00 -0.0000000000e+00 -2.8073811000e+00 2.8073811000e+00 0.0000000000e+00 0.0000e+00 -1.0000e+00
       25  1    1    2    0    0 +0.0000000000e+00 +0.0000000000e+00 +1.3886139688e+03 1.3942287310e+03 1.2500000000e+02 0.0000e+00 0.0000e+00
<mgrwt>
<rscale>  0 0.12500000E+03</rscale>
<asrwt>0</asrwt>
<pdfrwt beam="1">  1       21 0.21406427E+00 0.12500000E+03</pdfrwt>
<pdfrwt beam="2">  1       21 0.43190589E-03 0.12500000E+03</pdfrwt>
<totfact> 0.15639032E+06</totfact>
</mgrwt>
<rwgt>
<wgt id='1'> +1.7860181e+01 </wgt>
<wgt id='2'> +0.0000000e+00 </wgt>
<wgt id='3'> +1.7860181e+01 </wgt>
<wgt id='4'> +1.7819387e+01 </wgt>
<wgt id='5'> +1.7860181e+01 </wgt>
<wgt id='6'> +1.7556000e+01 </wgt>
<wgt id='7'> +0.0000000e+00 </wgt>
<wgt id='8'> +1.7556000e+01 </wgt>
<wgt id='9'> +1.7860181e+01 </wgt>
<wgt id='10'> +1.7556000e+01 </wgt>
<wgt id='11'> +1.6913061e+01 </wgt>
<wgt id='12'> +0.0000000e+00 </wgt>
<wgt id='13'> +1.6913061e+01 </wgt>
<wgt id='14'> +1.7556000e+01 </wgt>
<wgt id='15'> +1.6913061e+01 </wgt>
<wgt id='16'> +1.7860181e+01 </wgt>
<wgt id='17'> +0.0000000e+00 </wgt>
<wgt id='18'> +1.7860181e+01 </wgt>
<wgt id='19'> +1.7819387e+01 </wgt>
<wgt id='20'> +1.7860181e+01 </wgt>
<wgt id='21'> +0.0000000e+00 </wgt>
<wgt id='22'> +1.7556000e+01 </wgt>
<wgt id='23'> +1.7860181e+01 </wgt>
<wgt id='24'> +1.7556000e+01 </wgt>
<wgt id='25'> +1.6913061e+01 </wgt>
<wgt id='26'> +0.0000000e+00 </wgt>
<wgt id='27'> +1.6913061e+01 </wgt>
<wgt id='28'> +1.7556000e+01 </wgt>
<wgt id='29'> +1.6913061e+01 </wgt>
<wgt id='30'> +1.7860181e+01 </wgt>
<wgt id='31'> +0.0000000e+00 </wgt>
<wgt id='32'> +1.7860181e+01 </wgt>
<wgt id='33'> +1.7819387e+01 </wgt>
<wgt id='34'> +1.7860181e+01 </wgt>
<wgt id='35'> +1.7556000e+01 </wgt>
<wgt id='36'> +0.0000000e+00 </wgt>
<wgt id='37'> +1.7556000e+01 </wgt>
<wgt id='38'> +1.7860181e+01 </wgt>
<wgt id='39'> +1.7556000e+01 </wgt>
<wgt id='40'> +1.6913061e+01 </wgt>
<wgt id='41'> +0.0000000e+00 </wgt>
<wgt id='42'> +1.6913061e+01 </wgt>
<wgt id='43'> +1.7556000e+01 </wgt>
<wgt id='44'> +1.6913061e+01 </wgt>
<wgt id='45'> +1.7556000e+01 </wgt>
<wgt id='46'> +1.8102731e+01 </wgt>
<wgt id='47'> +1.7900417e+01 </wgt>
<wgt id='48'> +1.7625217e+01 </wgt>
<wgt id='49'> +1.6367661e+01 </wgt>
<wgt id='50'> +1.9473248e+01 </wgt>
<wgt id='51'> +1.6573205e+01 </wgt>
<wgt id='52'> +1.6384698e+01 </wgt>
<wgt id='53'> +1.7390066e+01 </wgt>
<wgt id='54'> +1.8651135e+01 </wgt>
<wgt id='55'> +2.0734289e+01 </wgt>
<wgt id='56'> +1.7242236e+01 </wgt>
<wgt id='57'> +1.8817908e+01 </wgt>
<wgt id='58'> +1.5769258e+01 </wgt>
<wgt id='59'> +1.9402611e+01 </wgt>
<wgt id='60'> +1.8263933e+01 </wgt>
<wgt id='61'> +1.4985167e+01 </wgt>
<wgt id='62'> +1.6199115e+01 </wgt>
<wgt id='63'> +1.8697676e+01 </wgt>
<wgt id='64'> +1.7772450e+01 </wgt>
<wgt id='65'> +1.5148974e+01 </wgt>
<wgt id='66'> +1.7760869e+01 </wgt>
<wgt id='67'> +1.7411671e+01 </wgt>
<wgt id='68'> +2.1041341e+01 </wgt>
<wgt id='69'> +1.9285136e+01 </wgt>
<wgt id='70'> +1.9219437e+01 </wgt>
<wgt id='71'> +1.5723254e+01 </wgt>
<wgt id='72'> +1.5863145e+01 </wgt>
<wgt id='73'> +1.6064833e+01 </wgt>
<wgt id='74'> +2.0619082e+01 </wgt>
<wgt id='75'> +1.9743486e+01 </wgt>
<wgt id='76'> +1.8110320e+01 </wgt>
<wgt id='77'> +1.6797919e+01 </wgt>
<wgt id='78'> +1.4846037e+01 </wgt>
<wgt id='79'> +1.9655517e+01 </wgt>
<wgt id='80'> +1.5169739e+01 </wgt>
<wgt id='81'> +1.8208562e+01 </wgt>
<wgt id='82'> +1.7145088e+01 </wgt>
<wgt id='83'> +1.7024922e+01 </wgt>
<wgt id='84'> +1.6079924e+01 </wgt>
<wgt id='85'> +1.5606143e+01 </wgt>
<wgt id='86'> +1.8697662e+01 </wgt>
<wgt id='87'> +1.7380889e+01 </wgt>
<wgt id='88'> +1.6585139e+01 </wgt>
<wgt id='89'> +1.4793863e+01 </wgt>
<wgt id='90'> +1.6148188e+01 </wgt>
<wgt id='91'> +1.4551082e+01 </wgt>
<wgt id='92'> +1.6556191e+01 </wgt>
<wgt id='93'> +1.8206558e+01 </wgt>
<wgt id='94'> +1.6042408e+01 </wgt>
<wgt id='95'> +1.8569245e+01 </wgt>
<wgt id='96'> +1.8226138e+01 </wgt>
<wgt id='97'> +1.5602025e+01 </wgt>
<wgt id='98'> +1.9449097e+01 </wgt>
<wgt id='99'> +1.4845255e+01 </wgt>
<wgt id='100'> +1.2930159e+01 </wgt>
<wgt id='101'> +2.0526925e+01 </wgt>
<wgt id='102'> +2.0319457e+01 </wgt>
<wgt id='103'> +1.6271049e+01 </wgt>
<wgt id='104'> +1.8697871e+01 </wgt>
<wgt id='105'> +1.7518701e+01 </wgt>
<wgt id='106'> +1.7378125e+01 </wgt>
<wgt id='107'> +1.7023087e+01 </wgt>
<wgt id='108'> +1.6633320e+01 </wgt>
<wgt id='109'> +1.7738500e+01 </wgt>
<wgt id='110'> +1.6060620e+01 </wgt>
<wgt id='111'> +1.6941515e+01 </wgt>
<wgt id='112'> +1.8602663e+01 </wgt>
<wgt id='113'> +1.9462369e+01 </wgt>
<wgt id='114'> +1.8241126e+01 </wgt>
<wgt id='115'> +1.5803848e+01 </wgt>
<wgt id='116'> +1.9554988e+01 </wgt>
<wgt id='117'> +1.7113819e+01 </wgt>
<wgt id='118'> +1.8292561e+01 </wgt>
<wgt id='119'> +1.9799514e+01 </wgt>
<wgt id='120'> +1.7503888e+01 </wgt>
<wgt id='121'> +1.7411029e+01 </wgt>
<wgt id='122'> +1.7184324e+01 </wgt>
<wgt id='123'> +1.6497557e+01 </wgt>
<wgt id='124'> +1.9496264e+01 </wgt>
<wgt id='125'> +2.2281878e+01 </wgt>
<wgt id='126'> +1.6957856e+01 </wgt>
<wgt id='127'> +1.6686728e+01 </wgt>
<wgt id='128'> +1.7100370e+01 </wgt>
<wgt id='129'> +1.7043600e+01 </wgt>
<wgt id='130'> +1.6933859e+01 </wgt>
<wgt id='131'> +1.5544929e+01 </wgt>
<wgt id='132'> +1.9332172e+01 </wgt>
<wgt id='133'> +1.9654976e+01 </wgt>
<wgt id='134'> +1.8820749e+01 </wgt>
<wgt id='135'> +1.6708479e+01 </wgt>
<wgt id='136'> +2.1425161e+01 </wgt>
<wgt id='137'> +1.8891497e+01 </wgt>
<wgt id='138'> +1.8804130e+01 </wgt>
<wgt id='139'> +1.8393788e+01 </wgt>
<wgt id='140'> +1.6841856e+01 </wgt>
<wgt id='141'> +2.0018413e+01 </wgt>
<wgt id='142'> +1.1640920e+01 </wgt>
<wgt id='143'> +1.7929409e+01 </wgt>
<wgt id='144'> +1.5654677e+01 </wgt>
<wgt id='145'> +1.5769868e+01 </wgt>
</rwgt>
</event>
<event>
 3      1 +1.7556000e+01 1.25000000e+02 7.54677100e-03 1.23506900e-01
       21 -1    0    0  502  501 +0.0000000000e+00 +0.0000000000e+00 +1.1778271183e+01 1.1778271183e+01 0.0000000000e+00 0.0000e+00 -1.0000e+00
       21 -1    0    0  501  502 -0.0000000000e+00 -0.0000000000e+00 -3.3164884212e+02 3.3164884212e+02 0.0000000000e+00 0.0000e+00 -1.0000e+00
       25  1    1    2    0    0 +0.0000000000e+00 +0.0000000000e+00 -3.1987057094e+02 3.4342711331e+02 1.2500000000e+02 0.0000e+00 0.0000e+00
<mgrwt>
<rscale>  0 0.12500000E+03</rscale>
<asrwt>0</asrwt>
<pdfrwt beam="1">  1       21 0.18120419E-02 0.12500000E+03</pdfrwt>
<pdfrwt beam="2">  1       21 0.51022895E-01 0.12500000E+03</pdfrwt>
<totfact> 0.52027553E+06</totfact>
</mgrwt>
<rwgt>
<wgt id='1'> +1.6843800e+01 </wgt>
<wgt id='2'> +0.0000000e+00 </wgt>
<wgt id='3'> +1.6843800e+01 </wgt>
<wgt id='4'> +1.5750406e+01 </wgt>
<wgt id='5'> +1.6843800e+01 </wgt>
<wgt id='6'> +1.7556000e+01 </wgt>
<wgt id='7'> +0.0000000e+00 </wgt>
<wgt id='8'> +1.7556000e+01 </wgt>
<wgt id='9'> +1.6843800e+01 </wgt>
<wgt id='10'> +1.7556000e+01 </wgt>
<wgt id='11'> +1.7834599e+01 </wgt>
<wgt id='12'> +0.0000000e+00 </wgt>
<wgt id='13'> +1.7834599e+01 </wgt>
<wgt id='14'> +1.7556000e+01 </wgt>
<wgt id='15'> +1.7834599e+01 </wgt>
<wgt id='16'> +1.6843800e+01 </wgt>
<wgt id='17'> +0.0000000e+00 </wgt>
<wgt id='18'> +1.6843800e+01 </wgt>
<wgt id='19'> +1.5750406e+01 </wgt>
<wgt id='20'> +1.6843800e+01 </wgt>
<wgt id='21'> +0.0000000e+00 </wgt>
<wgt id='22'> +1.7556000e+01 </wgt>
<wgt id='23'> +1.6843800e+01 </wgt>
<wgt id='24'> +1.7556000e+01 </wgt>
<wgt id='25'> +1.7834599e+01 </wgt>
<wgt id='26'> +0.0000000e+00 </wgt>
<wgt id='27'> +1.7834599e+01 </wgt>
<wgt id='28'> +1.7556000e+01 </wgt>
<wgt id='29'> +1.7834599e+01 </wgt>
<wgt id='30'> +1.6843800e+01 </wgt>
<wgt id='31'> +0.0000000e+00 </wgt>
<wgt id='32'> +1.6843800e+01 </wgt>
<wgt id='33'> +1.5750406e+01 </wgt>
<wgt id='34'> +1.6843800e+01 </wgt>
<wgt id='35'> +1.7556000e+01 </wgt>
<wgt id='36'> +0.0000000e+00 </wgt>
<wgt id='37'> +1.7556000e+01 </wgt>
<wgt id='38'> +1.6843800e+01 </wgt>
<wgt id='39'> +1.7556000e+01 </wgt>
<wgt id='40'> +1.7834599e+01 </wgt>
<wgt id='41'> +0.0000000e+00 </wgt>
<wgt id='42'> +1.7834599e+01 </wgt>
<wgt id='43'> +1.7556000e+01 </wgt>
<wgt id='44'> +1.7834599e+01 </wgt>
<wgt id='45'> +1.7556000e+01 </wgt>
<wgt id='46'> +1.7429422e+01 </wgt>
<wgt id='47'> +1.7645934e+01 </wgt>
<wgt id='48'> +1.7474735e+01 </wgt>
<wgt id='49'> +1.7722636e+01 </wgt>
<wgt id='50'> +1.8726376e+01 </wgt>
<wgt id='51'> +1.7354428e+01 </wgt>
<wgt id='52'> +1.7551642e+01 </wgt>
<wgt id='53'> +1.7574577e+01 </wgt>
<wgt id='54'> +1.7608670e+01 </wgt>
<wgt id='55'> +1.6458933e+01 </wgt>
<wgt id='56'> +1.6953799e+01 </wgt>
<wgt id='57'> +1.7284202e+01 </wgt>
<wgt id='58'> +1.8053325e+01 </wgt>
<wgt id='59'> +1.7423908e+01 </wgt>
<wgt id='60'> +1.7473450e+01 </wgt>
<wgt id='61'> +1.7396825e+01 </wgt>
<wgt id='62'> +1.7420183e+01 </wgt>
<wgt id='63'> +1.7654564e+01 </wgt>
<wgt id='64'> +1.7694071e+01 </wgt>
<wgt id='65'> +1.9115693e+01 </wgt>
<wgt id='66'> +1.7129124e+01 </wgt>
<wgt id='67'> +1.7595700e+01 </wgt>
<wgt id='68'> +1.8238999e+01 </wgt>
<wgt id='69'> +1.6729683e+01 </wgt>
<wgt id='70'> +1.7367080e+01 </wgt>
<wgt id='71'> +1.7671775e+01 </wgt>
<wgt id='72'> +1.7743755e+01 </wgt>
<wgt id='73'> +1.7708410e+01 </wgt>
<wgt id='74'> +1.7832814e+01 </wgt>
<wgt id='75'> +1.7788965e+01 </wgt>
<wgt id='76'> +1.7192058e+01 </wgt>
<wgt id='77'> +1.7155583e+01 </wgt>
<wgt id='78'> +1.7680885e+01 </wgt>
<wgt id='79'> +1.7166469e+01 </wgt>
<wgt id='80'> +1.7427706e+01 </wgt>
<wgt id='81'> +1.7373255e+01 </wgt>
<wgt id='82'> +1.7937676e+01 </wgt>
<wgt id='83'> +1.7416783e+01 </wgt>
<wgt id='84'> +1.8241589e+01 </wgt>
<wgt id='85'> +1.8232979e+01 </wgt>
<wgt id='86'> +1.7301523e+01 </wgt>
<wgt id='87'> +1.7576415e+01 </wgt>
<wgt id='88'> +1.7343833e+01 </wgt>
<wgt id='89'> +1.8026104e+01 </wgt>
<wgt id='90'> +1.7827881e+01 </wgt>
<wgt id='91'> +1.8336086e+01 </wgt>
<wgt id='92'> +1.6858200e+01 </wgt>
<wgt id='93'> +1.7404882e+01 </wgt>
<wgt id='94'> +1.7652890e+01 </wgt>
<wgt id='95'> +1.7163031e+01 </wgt>
<wgt id='96'> +1.8175471e+01 </wgt>
<wgt id='97'> +1.7787647e+01 </wgt>
<wgt id='98'> +1.6872106e+01 </wgt>
<wgt id='99'> +1.7511360e+01 </wgt>
<wgt id='100'> +1.7902703e+01 </wgt>
<wgt id='101'> +1.7966193e+01 </wgt>
<wgt id='102'> +1.6954217e+01 </wgt>
<wgt id='103'> +1.8553702e+01 </wgt>
<wgt id='104'> +1.7191783e+01 </wgt>
<wgt id='105'> +1.8191173e+01 </wgt>
<wgt id='106'> +1.6898623e+01 </wgt>
<wgt id='107'> +1.7746100e+01 </wgt>
<wgt id='108'> +1.6440089e+01 </wgt>
<wgt id='109'> +1.7074856e+01 </wgt>
<wgt id='110'> +1.7849271e+01 </wgt>
<wgt id='111'> +1.7239631e+01 </wgt>
<wgt id='112'> +1.7091466e+01 </wgt>
<wgt id='113'> +1.6785721e+01 </wgt>
<wgt id='114'> +1.7755006e+01 </wgt>
<wgt id='115'> +1.7430788e+01 </wgt>
<wgt id='116'> +1.7260658e+01 </wgt>
<wgt id='117'> +1.7675751e+01 </wgt>
<wgt id='118'> +1.7738679e+01 </wgt>
<wgt id='119'> +1.7242621e+01 </wgt>
<wgt id='120'> +1.7410544e+01 </wgt>
<wgt id='121'> +1.7492365e+01 </wgt>
<wgt id='122'> +1.7451215e+01 </wgt>
<wgt id='123'> +1.7488902e+01 </wgt>
<wgt id='124'> +1.8096966e+01 </wgt>
<wgt id='125'> +1.8247592e+01 </wgt>
<wgt id='126'> +1.7932465e+01 </wgt>
<wgt id='127'> +1.7901337e+01 </wgt>
<wgt id='128'> +1.6494371e+01 </wgt>
<wgt id='129'> +1.9052149e+01 </wgt>
<wgt id='130'> +1.7160916e+01 </wgt>
<wgt id='131'> +1.8437915e+01 </wgt>
<wgt id='132'> +1.7508900e+01 </wgt>
<wgt id='133'> +1.7381782e+01 </wgt>
<wgt id='134'> +1.6867589e+01 </wgt>
<wgt id='135'> +1.7950347e+01 </wgt>
<wgt id='136'> +1.7152872e+01 </wgt>
<wgt id='137'> +1.6566654e+01 </wgt>
<wgt id='138'> +1.5946163e+01 </wgt>
<wgt id='139'> +1.7908053e+01 </wgt>
<wgt id='140'> +1.8408430e+01 </wgt>
<wgt id='141'> +1.7302803e+01 </wgt>
<wgt id='142'> +1.7932952e+01 </wgt>
<wgt id='143'> +1.7514625e+01 </wgt>
<wgt id='144'> +1.7778644e+01 </wgt>
<wgt id='145'> +1.7462803e+01 </wgt>
</rwgt>
</event>
<event>
 3      1 +1.7556000e+01 1.25000000e+02 7.54677100e-03 1.23506900e-01
       21 -1    0    0  502  501 +0.0000000000e+00 +0.0000000000e+00 +2.4800605853e+02 2.4800605853e+02 0.0000000000e+00 0.0000e+00 -1.0000e+00
       21 -1    0    0  501  502 -0.0000000000e+00 -0.0000000000e+00 -1.5750623284e+01 1.5750623284e+01 0.0000000000e+00 0.0000e+00 -1.0000e+00
       25  1    1    2    0    0 +0.0000000000e+00 +0.0000000000e+00 +2.3225543525e+02 2.6375668182e+02 1.2500000000e+02 0.0000e+00 0.0000e+00
<mgrwt>
<rscale>  0 0.12500000E+03</rscale>
<asrwt>0</asrwt>
<pdfrwt beam="1">  1       21 0.38154775E-01 0.12500000E+03</pdfrwt>
<pdfrwt beam="2">  1       21 0.24231730E-02 0.12500000E+03</pdfrwt>
<totfact> 0.58606655E+06</totfact>
</mgrwt>
<rwgt>
<wgt id='1'> +1.6778410e+01 </wgt>
<wgt id='2'> +0.0000000e+00 </wgt>
<wgt id='3'> +1.6778410e+01 </wgt>
<wgt id='4'> +1.5619629e+01 </wgt>
<wgt id='5'> +1.6778410e+01 </wgt>
<wgt id='6'> +1.7556000e+01 </wgt>
<wgt id='7'> +0.0000000e+00 </wgt>
<wgt id='8'> +1.7556000e+01 </wgt>
<wgt id='9'> +1.6778410e+01 </wgt>
<wgt id='10'> +1.7556000e+01 </wgt>
<wgt id='11'> +1.7896358e+01 </wgt>
<wgt id='12'> +0.0000000e+00 </wgt>
<wgt id='13'> +1.7896358e+01 </wgt>
<wgt id='14'> +1.7556000e+01 </wgt>
<wgt id='15'> +1.7896358e+01 </wgt>
<wgt id='16'> +1.6778410e+01 </wgt>
<wgt id='17'> +0.0000000e+00 </wgt>
<wgt id='18'> +1.6778410e+01 </wgt>
<wgt id='19'> +1.5619629e+01 </wgt>
<wgt id='20'> +1.6778410e+01 </wgt>
<wgt id='21'> +0.0000000e+00 </wgt>
<wgt id='22'> +1.7556000e+01 </wgt>
<wgt id='23'> +1.6778410e+01 </wgt>
<wgt id='24'> +1.7556000e+01 </wgt>
<wgt id='25'> +1.7896358e+01 </wgt>
<wgt id='26'> +0.0000000e+00 </wgt>
<wgt id='27'> +1.7896358e+01 </wgt>
<wgt id='28'> +1.7556000e+01 </wgt>
<wgt id='29'> +1.7896358e+01 </wgt>
<wgt id='30'> +1.6778410e+01 </wgt>
<wgt id='31'> +0.0000000e+00 </wgt>
<wgt id='32'> +1.6778410e+01 </wgt>
<wgt id='33'> +1.5619629e+01 </wgt>
<wgt id='34'> +1.6778410e+01 </wgt>
<wgt id='35'> +1.7556000e+01 </wgt>
<wgt id='36'> +0.0000000e+00 </wgt>
<wgt id='37'> +1.7556000e+01 </wgt>
<wgt id='38'> +1.6778410e+01 </wgt>
<wgt id='39'> +1.7556000e+01 </wgt>
<wgt id='40'> +1.7896358e+01 </wgt>
<wgt id='41'> +0.0000000e+00 </wgt>
<wgt id='42'> +1.7896358e+01 </wgt>
<wgt id='43'> +1.7556000e+01 </wgt>
<wgt id='44'> +1.7896358e+01 </wgt>
<wgt id='45'> +1.7556000e+01 </wgt>
<wgt id='46'> +1.7267482e+01 </wgt>
<wgt id='47'> +1.7610757e+01 </wgt>
<wgt id='48'> +1.7369722e+01 </wgt>
<wgt id='49'> +1.7691344e+01 </wgt>
<wgt id='50'> +1.8447169e+01 </wgt>
<wgt id='51'> +1.7334714e+01 </wgt>
<wgt id='52'> +1.7479719e+01 </wgt>
<wgt id='53'> +1.7745420e+01 </wgt>
<wgt id='54'> +1.7618598e+01 </wgt>
<wgt id='55'> +1.6435133e+01 </wgt>
<wgt id='56'> +1.7108185e+01 </wgt>
<wgt id='57'> +1.7274423e+01 </wgt>
<wgt id='58'> +1.8178585e+01 </wgt>
<wgt id='59'> +1.7223053e+01 </wgt>
<wgt id='60'> +1.7215653e+01 </wgt>
<wgt id='61'> +1.7739533e+01 </wgt>
<wgt id='62'> +1.7363250e+01 </wgt>
<wgt id='63'> +1.7643703e+01 </wgt>
<wgt id='64'> +1.7825805e+01 </wgt>
<wgt id='65'> +1.9228818e+01 </wgt>
<wgt id='66'> +1.7117826e+01 </wgt>
<wgt id='67'> +1.7626916e+01 </wgt>
<wgt id='68'> +1.8120790e+01 </wgt>
<wgt id='69'> +1.6568412e+01 </wgt>
<wgt id='70'> +1.7421291e+01 </wgt>
<wgt id='71'> +1.7719473e+01 </wgt>
<wgt id='72'> +1.8015105e+01 </wgt>
<wgt id='73'> +1.7740512e+01 </wgt>
<wgt id='74'> +1.7657350e+01 </wgt>
<wgt id='75'> +1.7730737e+01 </wgt>
<wgt id='76'> +1.7238469e+01 </wgt>
<wgt id='77'> +1.7011397e+01 </wgt>
<wgt id='78'> +1.7868282e+01 </wgt>
<wgt id='79'> +1.7016718e+01 </wgt>
<wgt id='80'> +1.7513553e+01 </wgt>
<wgt id='81'> +1.7457601e+01 </wgt>
<wgt id='82'> +1.8057168e+01 </wgt>
<wgt id='83'> +1.7381545e+01 </wgt>
<wgt id='84'> +1.8261641e+01 </wgt>
<wgt id='85'> +1.8228180e+01 </wgt>
<wgt id='86'> +1.7206850e+01 </wgt>
<wgt id='87'> +1.7499388e+01 </wgt>
<wgt id='88'> +1.7362362e+01 </wgt>
<wgt id='89'> +1.7891481e+01 </wgt>
<wgt id='90'> +1.7733459e+01 </wgt>
<wgt id='91'> +1.8420571e+01 </wgt>
<wgt id='92'> +1.7156551e+01 </wgt>
<wgt id='93'> +1.7269939e+01 </wgt>
<wgt id='94'> +1.7759705e+01 </wgt>
<wgt id='95'> +1.7221467e+01 </wgt>
<wgt id='96'> +1.8009741e+01 </wgt>
<wgt id='97'> +1.7892567e+01 </wgt>
<wgt id='98'> +1.6825595e+01 </wgt>
<wgt id='99'> +1.7516662e+01 </wgt>
<wgt id='100'> +1.8174202e+01 </wgt>
<wgt id='101'> +1.7655464e+01 </wgt>
<wgt id='102'> +1.6659907e+01 </wgt>
<wgt id='103'> +1.8430225e+01 </wgt>
<wgt id='104'> +1.7152470e+01 </wgt>
<wgt id='105'> +1.8334585e+01 </wgt>
<wgt id='106'> +1.7155221e+01 </wgt>
<wgt id='107'> +1.8027617e+01 </wgt>
<wgt id='108'> +1.6708897e+01 </wgt>
<wgt id='109'> +1.7208281e+01 </wgt>
<wgt id='110'> +1.7871765e+01 </wgt>
<wgt id='111'> +1.7341278e+01 </wgt>
<wgt id='112'> +1.7249715e+01 </wgt>
<wgt id='113'> +1.6871503e+01 </wgt>
<wgt id='114'> +1.8039154e+01 </wgt>
<wgt id='115'> +1.7768475e+01 </wgt>
<wgt id='116'> +1.7025829e+01 </wgt>
<wgt id='117'> +1.7792096e+01 </wgt>
<wgt id='118'> +1.7501645e+01 </wgt>
<wgt id='119'> +1.7307749e+01 </wgt>
<wgt id='120'> +1.7620516e+01 </wgt>
<wgt id='121'> +1.7539905e+01 </wgt>
<wgt id='122'> +1.7473014e+01 </wgt>
<wgt id='123'> +1.7446237e+01 </wgt>
<wgt id='124'> +1.7859437e+01 </wgt>
<wgt id='125'> +1.8026109e+01 </wgt>
<wgt id='126'> +1.7857603e+01 </wgt>
<wgt id='127'> +1.7805404e+01 </wgt>
<wgt id='128'> +1.6670060e+01 </wgt>
<wgt id='129'> +1.9036469e+01 </wgt>
<wgt id='130'> +1.7184052e+01 </wgt>
<wgt id='131'> +1.8478723e+01 </wgt>
<wgt id='132'> +1.7302890e+01 </wgt>
<wgt id='133'> +1.7182588e+01 </wgt>
<wgt id='134'> +1.6811729e+01 </wgt>
<wgt id='135'> +1.7941077e+01 </wgt>
<wgt id='136'> +1.6967711e+01 </wgt>
<wgt id='137'> +1.6505170e+01 </wgt>
<wgt id='138'> +1.5731106e+01 </wgt>
<wgt id='139'> +1.7782760e+01 </wgt>
<wgt id='140'> +1.8536642e+01 </wgt>
<wgt id='141'> +1.7285736e+01 </wgt>
<wgt id='142'> +1.8142197e+01 </wgt>
<wgt id='143'> +1.7411660e+01 </wgt>
<wgt id='144'> +1.7905335e+01 </wgt>
<wgt id='145'> +1.7474073e+01 </wgt>
</rwgt>
</event>
<event>
 3      1 +1.7556000e+01 1.25000000e+02 7.54677100e-03 1.23506900e-01
       21 -1    0    0  502  501 +0.0000000000e+00 +0.0000000000e+00 +2.7522881178e+02 2.7522881178e+02 0.0000000000e+00 0.0000e+00 1.0000e+00
       21 -1    0    0  501  502 -0.0000000000e+00 -0.0000000000e+00 -1.4192736490e+01 1.4192736490e+01 0.0000000000e+00 0.0000e+00 1.0000e+00
       25  1    1    2    0    0 +0.0000000000e+00 +0.0000000000e+00 +2.6103607529e+02 2.8942154827e+02 1.2500000000e+02 0.0000e+00 0.0000e+00
<mgrwt>
<rscale>  0 0.12500000E+03</rscale>
<asrwt>0</asrwt>
<pdfrwt beam="1">  1       21 0.42342890E-01 0.12500000E+03</pdfrwt>
<pdfrwt beam="2">  1       21 0.21834981E-02 0.12500000E+03</pdfrwt>
<totfact> 0.56346906E+06</totfact>
</mgrwt>
<rwgt>
<wgt id='1'> +1.6802127e+01 </wgt>
<wgt id='2'> +0.0000000e+00 </wgt>
<wgt id='3'> +1.6802127e+01 </wgt>
<wgt id='4'> +1.5666923e+01 </wgt>
<wgt id='5'> +1.6802127e+01 </wgt>
<wgt id='6'> +1.7556000e+01 </wgt>
<wgt id='7'> +0.0000000e+00 </wgt>
<wgt id='8'> +1.7556000e+01 </wgt>
<wgt id='9'> +1.6802127e+01 </wgt>
<wgt id='10'> +1.7556000e+01 </wgt>
<wgt id='11'> +1.7873840e+01 </wgt>
<wgt id='12'> +0.0000000e+00 </wgt>
<wgt id='13'> +1.7873840e+01 </wgt>
<wgt id='14'> +1.7556000e+01 </wgt>
<wgt id='15'> +1.7873840e+01 </wgt>
<wgt id='16'> +1.6802127e+01 </wgt>
<wgt id='17'> +0.0000000e+00 </wgt>
<wgt id='18'> +1.6802127e+01 </wgt>
<wgt id='19'> +1.5666923e+01 </wgt>
<wgt id='20'> +1.6802127e+01 </wgt>
<wgt id='21'> +0.0000000e+00 </wgt>
<wgt id='22'> +1.7556000e+01 </wgt>
<wgt id='23'> +1.6802127e+01 </wgt>
<wgt id='24'> +1.7556000e+01 </wgt>
<wgt id='25'> +1.7873840e+01 </wgt>
<wgt id='26'> +0.0000000e+00 </wgt>
<wgt id='27'> +1.7873840e+01 </wgt>
<wgt id='28'> +1.7556000e+01 </wgt>
<wgt id='29'> +1.7873840e+01 </wgt>
<wgt id='30'> +1.6802127e+01 </wgt>
<wgt id='31'> +0.0000000e+00 </wgt>
<wgt id='32'> +1.6802127e+01 </wgt>
<wgt id='33'> +1.5666923e+01 </wgt>
<wgt id='34'> +1.6802127e+01 </wgt>
<wgt id='35'> +1.7556000e+01 </wgt>
<wgt id='36'> +0.0000000e+00 </wgt>
<wgt id='37'> +1.7556000e+01 </wgt>
<wgt id='38'> +1.6802127e+01 </wgt>
<wgt id='39'> +1.7556000e+01 </wgt>
<wgt id='40'> +1.7873840e+01 </wgt>
<wgt id='41'> +0.0000000e+00 </wgt>
<wgt id='42'> +1.7873840e+01 </wgt>
<wgt id='43'> +1.7556000e+01 </wgt>
<wgt id='44'> +1.7873840e+01 </wgt>
<wgt id='45'> +1.7556000e+01 </wgt>
<wgt id='46'> +1.7320813e+01 </wgt>
<wgt id='47'> +1.7625536e+01 </wgt>
<wgt id='48'> +1.7406043e+01 </wgt>
<wgt id='49'> +1.7704499e+01 </wgt>
<wgt id='50'> +1.8544503e+01 </wgt>
<wgt id='51'> +1.7342238e+01 </wgt>
<wgt id='52'> +1.7501970e+01 </wgt>
<wgt id='53'> +1.7691293e+01 </wgt>
<wgt id='54'> +1.7614658e+01 </wgt>
<wgt id='55'> +1.6430536e+01 </wgt>
<wgt id='56'> +1.7057901e+01 </wgt>
<wgt id='57'> +1.7270452e+01 </wgt>
<wgt id='58'> +1.8139290e+01 </wgt>
<wgt id='59'> +1.7281949e+01 </wgt>
<wgt id='60'> +1.7296979e+01 </wgt>
<wgt id='61'> +1.7636769e+01 </wgt>
<wgt id='62'> +1.7383957e+01 </wgt>
<wgt id='63'> +1.7648118e+01 </wgt>
<wgt id='64'> +1.7782956e+01 </wgt>
<wgt id='65'> +1.9199899e+01 </wgt>
<wgt id='66'> +1.7121327e+01 </wgt>
<wgt id='67'> +1.7617142e+01 </wgt>
<wgt id='68'> +1.8159263e+01 </wgt>
<wgt id='69'> +1.6622082e+01 </wgt>
<wgt id='70'> +1.7402082e+01 </wgt>
<wgt id='71'> +1.7703259e+01 </wgt>
<wgt id='72'> +1.7917282e+01 </wgt>
<wgt id='73'> +1.7731821e+01 </wgt>
<wgt id='74'> +1.7714981e+01 </wgt>
<wgt id='75'> +1.7751235e+01 </wgt>
<wgt id='76'> +1.7217065e+01 </wgt>
<wgt id='77'> +1.7057425e+01 </wgt>
<wgt id='78'> +1.7810889e+01 </wgt>
<wgt id='79'> +1.7063225e+01 </wgt>
<wgt id='80'> +1.7486161e+01 </wgt>
<wgt id='81'> +1.7428603e+01 </wgt>
<wgt id='82'> +1.8024412e+01 </wgt>
<wgt id='83'> +1.7396473e+01 </wgt>
<wgt id='84'> +1.8261233e+01 </wgt>
<wgt id='85'> +1.8237836e+01 </wgt>
<wgt id='86'> +1.7238811e+01 </wgt>
<wgt id='87'> +1.7524980e+01 </wgt>
<wgt id='88'> +1.7359714e+01 </wgt>
<wgt id='89'> +1.7939232e+01 </wgt>
<wgt id='90'> +1.7763027e+01 </wgt>
<wgt id='91'> +1.8399103e+01 </wgt>
<wgt id='92'> +1.7045955e+01 </wgt>
<wgt id='93'> +1.7314981e+01 </wgt>
<wgt id='94'> +1.7724701e+01 </wgt>
<wgt id='95'> +1.7193519e+01 </wgt>
<wgt id='96'> +1.8072189e+01 </wgt>
<wgt id='97'> +1.7859818e+01 </wgt>
<wgt id='98'> +1.6835636e+01 </wgt>
<wgt id='99'> +1.7518189e+01 </wgt>
<wgt id='100'> +1.8088989e+01 </wgt>
<wgt id='101'> +1.7755673e+01 </wgt>
<wgt id='102'> +1.6752328e+01 </wgt>
<wgt id='103'> +1.8476181e+01 </wgt>
<wgt id='104'> +1.7165947e+01 </wgt>
<wgt id='105'> +1.8285352e+01 </wgt>
<wgt id='106'> +1.7063976e+01 </wgt>
<wgt id='107'> +1.7934986e+01 </wgt>
<wgt id='108'> +1.6615553e+01 </wgt>
<wgt id='109'> +1.7159937e+01 </wgt>
<wgt id='110'> +1.7865196e+01 </wgt>
<wgt id='111'> +1.7304459e+01 </wgt>
<wgt id='112'> +1.7197166e+01 </wgt>
<wgt id='113'> +1.6838237e+01 </wgt>
<wgt id='114'> +1.7943274e+01 </wgt>
<wgt id='115'> +1.7661479e+01 </wgt>
<wgt id='116'> +1.7103061e+01 </wgt>
<wgt id='117'> +1.7757026e+01 </wgt>
<wgt id='118'> +1.7580407e+01 </wgt>
<wgt id='119'> +1.7281561e+01 </wgt>
<wgt id='120'> +1.7555281e+01 </wgt>
<wgt id='121'> +1.7520254e+01 </wgt>
<wgt id='122'> +1.7464079e+01 </wgt>
<wgt id='123'> +1.7463280e+01 </wgt>
<wgt id='124'> +1.7937115e+01 </wgt>
<wgt id='125'> +1.8097602e+01 </wgt>
<wgt id='126'> +1.7887602e+01 </wgt>
<wgt id='127'> +1.7839875e+01 </wgt>
<wgt id='128'> +1.6612794e+01 </wgt>
<wgt id='129'> +1.9045217e+01 </wgt>
<wgt id='130'> +1.7181405e+01 </wgt>
<wgt id='131'> +1.8470804e+01 </wgt>
<wgt id='132'> +1.7361041e+01 </wgt>
<wgt id='133'> +1.7246146e+01 </wgt>
<wgt id='134'> +1.6823967e+01 </wgt>
<wgt id='135'> +1.7946392e+01 </wgt>
<wgt id='136'> +1.7016518e+01 </wgt>
<wgt id='137'> +1.6523868e+01 </wgt>
<wgt id='138'> +1.5801012e+01 </wgt>
<wgt id='139'> +1.7824813e+01 </wgt>
<wgt id='140'> +1.8498967e+01 </wgt>
<wgt id='141'> +1.7290170e+01 </wgt>
<wgt id='142'> +1.8080664e+01 </wgt>
<wgt id='143'> +1.7441053e+01 </wgt>
<wgt id='144'> +1.7863209e+01 </wgt>
<wgt id='145'> +1.7470351e+01 </wgt>
</rwgt>
</event>
<event>
 3      1 +1.7556000e+01 1.25000000e+02 7.54677100e-03 1.23506900e-01
       21 -1    0    0  502  501 +0.0000000000e+00 +0.0000000000e+00 +2.6593104741e+02 2.6593104741e+02 0.0000000000e+00 0.0000e+00 1.0000e+00
       21 -1    0    0  501  502 -0.0000000000e+00 -0.0000000000e+00 -1.4688958051e+01 1.4688958051e+01 0.0000000000e+00 0.0000e+00 1.0000e+00
       25  1    1    2    0    0 +0.0000000000e+00 +0.0000000000e+00 +2.5124208936e+02 2.8062000547e+02 1.2500000000e+02 0.0000e+00 0.0000e+00
<mgrwt>
<rscale>  0 0.12500000E+03</rscale>
<asrwt>0</asrwt>
<pdfrwt beam="1">  1       21 0.40912465E-01 0.12500000E+03</pdfrwt>
<pdfrwt beam="2">  1       21 0.22598399E-02 0.12500000E+03</pdfrwt>
<totfact> 0.57106192E+06</totfact>
</mgrwt>
<rwgt>
<wgt id='1'> +1.6794374e+01 </wgt>
<wgt id='2'> +0.0000000e+00 </wgt>
<wgt id='3'> +1.6794374e+01 </wgt>
<wgt id='4'> +1.5651447e+01 </wgt>
<wgt id='5'> +1.6794374e+01 </wgt>
<wgt id='6'> +1.7556000e+01 </wgt>
<wgt id='7'> +0.0000000e+00 </wgt>
<wgt id='8'> +1.7556000e+01 </wgt>
<wgt id='9'> +1.6794374e+01 </wgt>
<wgt id='10'> +1.7556000e+01 </wgt>
<wgt id='11'> +1.7881189e+01 </wgt>
<wgt id='12'> +0.0000000e+00 </wgt>
<wgt id='13'> +1.7881189e+01 </wgt>
<wgt id='14'> +1.7556000e+01 </wgt>
<wgt id='15'> +1.7881189e+01 </wgt>
<wgt id='16'> +1.6794374e+01 </wgt>
<wgt id='17'> +0.0000000e+00 </wgt>
<wgt id='18'> +1.6794374e+01 </wgt>
<wgt id='19'> +1.5651447e+01 </wgt>
<wgt id='20'> +1.6794374e+01 </wgt>
<wgt id='21'> +0.0000000e+00 </wgt>
<wgt id='22'> +1.7556000e+01 </wgt>
<wgt id='23'> +1.6794374e+01 </wgt>
<wgt id='24'> +1.7556000e+01 </wgt>
<wgt id='25'> +1.7881189e+01 </wgt>
<wgt id='26'> +0.0000000e+00 </wgt>
<wgt id='27'> +1.7881189e+01 </wgt>
<wgt id='28'> +1.7556000e+01 </wgt>
<wgt id='29'> +1.7881189e+01 </wgt>
<wgt id='30'> +1.6794374e+01 </wgt>
<wgt id='31'> +0.0000000e+00 </wgt>
<wgt id='32'> +1.6794374e+01 </wgt>
<wgt id='33'> +1.5651447e+01 </wgt>
<wgt id='34'> +1.6794374e+01 </wgt>
<wgt id='35'> +1.7556000e+01 </wgt>
<wgt id='36'> +0.0000000e+00 </wgt>
<wgt id='37'> +1.7556000e+01 </wgt>
<wgt id='38'> +1.6794374e+01 </wgt>
<wgt id='39'> +1.7556000e+01 </wgt>
<wgt id='40'> +1.7881189e+01 </wgt>
<wgt id='41'> +0.0000000e+00 </wgt>
<wgt id='42'> +1.7881189e+01 </wgt>
<wgt id='43'> +1.7556000e+01 </wgt>
<wgt id='44'> +1.7881189e+01 </wgt>
<wgt id='45'> +1.7556000e+01 </wgt>
<wgt id='46'> +1.7302631e+01 </wgt>
<wgt id='47'> +1.7620907e+01 </wgt>
<wgt id='48'> +1.7393871e+01 </wgt>
<wgt id='49'> +1.7700326e+01 </wgt>
<wgt id='50'> +1.8512018e+01 </wgt>
<wgt id='51'> +1.7339768e+01 </wgt>
<wgt id='52'> +1.7494139e+01 </wgt>
<wgt id='53'> +1.7710073e+01 </wgt>
<wgt id='54'> +1.7615997e+01 </wgt>
<wgt id='55'> +1.6430603e+01 </wgt>
<wgt id='56'> +1.7075165e+01 </wgt>
<wgt id='57'> +1.7270927e+01 </wgt>
<wgt id='58'> +1.8152892e+01 </wgt>
<wgt id='59'> +1.7260943e+01 </wgt>
<wgt id='60'> +1.7268757e+01 </wgt>
<wgt id='61'> +1.7672731e+01 </wgt>
<wgt id='62'> +1.7377101e+01 </wgt>
<wgt id='63'> +1.7646776e+01 </wgt>
<wgt id='64'> +1.7797740e+01 </wgt>
<wgt id='65'> +1.9210722e+01 </wgt>
<wgt id='66'> +1.7120123e+01 </wgt>
<wgt id='67'> +1.7620541e+01 </wgt>
<wgt id='68'> +1.8146156e+01 </wgt>
<wgt id='69'> +1.6603901e+01 </wgt>
<wgt id='70'> +1.7408500e+01 </wgt>
<wgt id='71'> +1.7708658e+01 </wgt>
<wgt id='72'> +1.7949524e+01 </wgt>
<wgt id='73'> +1.7734969e+01 </wgt>
<wgt id='74'> +1.7695356e+01 </wgt>
<wgt id='75'> +1.7744443e+01 </wgt>
<wgt id='76'> +1.7223597e+01 </wgt>
<wgt id='77'> +1.7041501e+01 </wgt>
<wgt id='78'> +1.7830976e+01 </wgt>
<wgt id='79'> +1.7047037e+01 </wgt>
<wgt id='80'> +1.7495550e+01 </wgt>
<wgt id='81'> +1.7438373e+01 </wgt>
<wgt id='82'> +1.8036371e+01 </wgt>
<wgt id='83'> +1.7391789e+01 </wgt>
<wgt id='84'> +1.8262133e+01 </wgt>
<wgt id='85'> +1.8235528e+01 </wgt>
<wgt id='86'> +1.7228036e+01 </wgt>
<wgt id='87'> +1.7516269e+01 </wgt>
<wgt id='88'> +1.7361040e+01 </wgt>
<wgt id='89'> +1.7923264e+01 </wgt>
<wgt id='90'> +1.7752673e+01 </wgt>
<wgt id='91'> +1.8407159e+01 </wgt>
<wgt id='92'> +1.7082053e+01 </wgt>
<wgt id='93'> +1.7299702e+01 </wgt>
<wgt id='94'> +1.7736602e+01 </wgt>
<wgt id='95'> +1.7201999e+01 </wgt>
<wgt id='96'> +1.8051871e+01 </wgt>
<wgt id='97'> +1.7871162e+01 </wgt>
<wgt id='98'> +1.6831552e+01 </wgt>
<wgt id='99'> +1.7518000e+01 </wgt>
<wgt id='100'> +1.8118471e+01 </wgt>
<wgt id='101'> +1.7721264e+01 </wgt>
<wgt id='102'> +1.6720289e+01 </wgt>
<wgt id='103'> +1.8461109e+01 </wgt>
<wgt id='104'> +1.7161475e+01 </wgt>
<wgt id='105'> +1.8301902e+01 </wgt>
<wgt id='106'> +1.7094275e+01 </wgt>
<wgt id='107'> +1.7966608e+01 </wgt>
<wgt id='108'> +1.6646826e+01 </wgt>
<wgt id='109'> +1.7175928e+01 </wgt>
<wgt id='110'> +1.7867498e+01 </wgt>
<wgt id='111'> +1.7316598e+01 </wgt>
<wgt id='112'> +1.7215155e+01 </wgt>
<wgt id='113'> +1.6849010e+01 </wgt>
<wgt id='114'> +1.7975797e+01 </wgt>
<wgt id='115'> +1.7698584e+01 </wgt>
<wgt id='116'> +1.7076754e+01 </wgt>
<wgt id='117'> +1.7769430e+01 </wgt>
<wgt id='118'> +1.7553622e+01 </wgt>
<wgt id='119'> +1.7289972e+01 </wgt>
<wgt id='120'> +1.7578265e+01 </wgt>
<wgt id='121'> +1.7526483e+01 </wgt>
<wgt id='122'> +1.7466906e+01 </wgt>
<wgt id='123'> +1.7457843e+01 </wgt>
<wgt id='124'> +1.7910579e+01 </wgt>
<wgt id='125'> +1.8073132e+01 </wgt>
<wgt id='126'> +1.7878043e+01 </wgt>
<wgt id='127'> +1.7828440e+01 </wgt>
<wgt id='128'> +1.6632458e+01 </wgt>
<wgt id='129'> +1.9042638e+01 </wgt>
<wgt id='130'> +1.7182930e+01 </wgt>
<wgt id='131'> +1.8474140e+01 </wgt>
<wgt id='132'> +1.7339960e+01 </wgt>
<wgt id='133'> +1.7224249e+01 </wgt>
<wgt id='134'> +1.6819037e+01 </wgt>
<wgt id='135'> +1.7944825e+01 </wgt>
<wgt id='136'> +1.6998409e+01 </wgt>
<wgt id='137'> +1.6517334e+01 </wgt>
<wgt id='138'> +1.5777101e+01 </wgt>
<wgt id='139'> +1.7810566e+01 </wgt>
<wgt id='140'> +1.8512387e+01 </wgt>
<wgt id='141'> +1.7288591e+01 </wgt>
<wgt id='142'> +1.8102432e+01 </wgt>
<wgt id='143'> +1.7430429e+01 </wgt>
<wgt id='144'> +1.7877467e+01 </wgt>
<wgt id='145'> +1.7471531e+01 </wgt>
</rwgt>
</event>
<event>
 3      1 +1.7556000e+01 1.25000000e+02 7.54677100e-03 1.23506900e-01
       21 -1    0    0  502  501 +0.0000000000e+00 +0.0000000000e+00 +1.7714911389e+02 1.7714911389e+02 0.0000000000e+00 0.0000e+00 1.0000e+00
       21 -1    0    0  501  502 -0.0000000000e+00 -0.0000000000e+00 -2.2050632455e+01 2.2050632455e+01 0.0000000000e+00 0.0000e+00 1.0000e+00
       25  1    1    2    0    0 +0.0000000000e+00 +0.0000000000e+00 +1.5509848143e+02 1.9919974634e+02 1.2500000000e+02 0.0000e+00 0.0000e+00
<mgrwt>
<rscale>  0 0.12500000E+03</rscale>
<asrwt>0</asrwt>
<pdfrwt beam="1">  1       21 0.27253709E-01 0.12500000E+03</pdfrwt>
<pdfrwt beam="2">  1       21 0.33924051E-02 0.12500000E+03</pdfrwt>
<totfact> 0.65014068E+06</totfact>
</mgrwt>
<rwgt>
<wgt id='1'> +1.6721392e+01 </wgt>
<wgt id='2'> +0.0000000e+00 </wgt>
<wgt id='3'> +1.6721392e+01 </wgt>
<wgt id='4'> +1.5505088e+01 </wgt>
<wgt id='5'> +1.6721392e+01 </wgt>
<wgt id='6'> +1.7556000e+01 </wgt>
<wgt id='7'> +0.0000000e+00 </wgt>
<wgt id='8'> +1.7556000e+01 </wgt>
<wgt id='9'> +1.6721392e+01 </wgt>
<wgt id='10'> +1.7556000e+01 </wgt>
<wgt id='11'> +1.7949879e+01 </wgt>
<wgt id='12'> +0.0000000e+00 </wgt>
<wgt id='13'> +1.7949879e+01 </wgt>
<wgt id='14'> +1.7556000e+01 </wgt>
<wgt id='15'> +1.7949879e+01 </wgt>
<wgt id='16'> +1.6721392e+01 </wgt>
<wgt id='17'> +0.0000000e+00 </wgt>
<wgt id='18'> +1.6721392e+01 </wgt>
<wgt id='19'> +1.5505088e+01 </wgt>
<wgt id='20'> +1.6721392e+01 </wgt>
<wgt id='21'> +0.0000000e+00 </wgt>
<wgt id='22'> +1.7556000e+01 </wgt>
<wgt id='23'> +1.6721392e+01 </wgt>
<wgt id='24'> +1.7556000e+01 </wgt>
<wgt id='25'> +1.7949879e+01 </wgt>
<wgt id='26'> +0.0000000e+00 </wgt>
<wgt id='27'> +1.7949879e+01 </wgt>
<wgt id='28'> +1.7556000e+01 </wgt>
<wgt id='29'> +1.7949879e+01 </wgt>
<wgt id='30'> +1.6721392e+01 </wgt>
<wgt id='31'> +0.0000000e+00 </wgt>
<wgt id='32'> +1.6721392e+01 </wgt>
<wgt id='33'> +1.5505088e+01 </wgt>
<wgt id='34'> +1.6721392e+01 </wgt>
<wgt id='35'> +1.7556000e+01 </wgt>
<wgt id='36'> +0.0000000e+00 </wgt>
<wgt id='37'> +1.7556000e+01 </wgt>
<wgt id='38'> +1.6721392e+01 </wgt>
<wgt id='39'> +1.7556000e+01 </wgt>
<wgt id='40'> +1.7949879e+01 </wgt>
<wgt id='41'> +0.0000000e+00 </wgt>
<wgt id='42'> +1.7949879e+01 </wgt>
<wgt id='43'> +1.7556000e+01 </wgt>
<wgt id='44'> +1.7949879e+01 </wgt>
<wgt id='45'> +1.7556000e+01 </wgt>
<wgt id='46'> +1.7126758e+01 </wgt>
<wgt id='47'> +1.7563279e+01 </wgt>
<wgt id='48'> +1.7266716e+01 </wgt>
<wgt id='49'> +1.7641556e+01 </wgt>
<wgt id='50'> +1.8182493e+01 </wgt>
<wgt id='51'> +1.7308423e+01 </wgt>
<wgt id='52'> +1.7425960e+01 </wgt>
<wgt id='53'> +1.7882881e+01 </wgt>
<wgt id='54'> +1.7632871e+01 </wgt>
<wgt id='55'> +1.6492101e+01 </wgt>
<wgt id='56'> +1.7231838e+01 </wgt>
<wgt id='57'> +1.7314509e+01 </wgt>
<wgt id='58'> +1.8270642e+01 </wgt>
<wgt id='59'> +1.7096441e+01 </wgt>
<wgt id='60'> +1.7007079e+01 </wgt>
<wgt id='61'> +1.7963183e+01 </wgt>
<wgt id='62'> +1.7298262e+01 </wgt>
<wgt id='63'> +1.7627676e+01 </wgt>
<wgt id='64'> +1.7934470e+01 </wgt>
<wgt id='65'> +1.9288075e+01 </wgt>
<wgt id='66'> +1.7108981e+01 </wgt>
<wgt id='67'> +1.7652125e+01 </wgt>
<wgt id='68'> +1.8026109e+01 </wgt>
<wgt id='69'> +1.6426673e+01 </wgt>
<wgt id='70'> +1.7476015e+01 </wgt>
<wgt id='71'> +1.7767540e+01 </wgt>
<wgt id='72'> +1.8305391e+01 </wgt>
<wgt id='73'> +1.7751025e+01 </wgt>
<wgt id='74'> +1.7507348e+01 </wgt>
<wgt id='75'> +1.7672074e+01 </wgt>
<wgt id='76'> +1.7320598e+01 </wgt>
<wgt id='77'> +1.6891950e+01 </wgt>
<wgt id='78'> +1.8001080e+01 </wgt>
<wgt id='79'> +1.6900935e+01 </wgt>
<wgt id='80'> +1.7581449e+01 </wgt>
<wgt id='81'> +1.7538546e+01 </wgt>
<wgt id='82'> +1.8116707e+01 </wgt>
<wgt id='83'> +1.7332253e+01 </wgt>
<wgt id='84'> +1.8247175e+01 </wgt>
<wgt id='85'> +1.8170174e+01 </wgt>
<wgt id='86'> +1.7119648e+01 </wgt>
<wgt id='87'> +1.7430024e+01 </wgt>
<wgt id='88'> +1.7359801e+01 </wgt>
<wgt id='89'> +1.7748832e+01 </wgt>
<wgt id='90'> +1.7660919e+01 </wgt>
<wgt id='91'> +1.8454360e+01 </wgt>
<wgt id='92'> +1.7496716e+01 </wgt>
<wgt id='93'> +1.7145749e+01 </wgt>
<wgt id='94'> +1.7850538e+01 </wgt>
<wgt id='95'> +1.7330493e+01 </wgt>
<wgt id='96'> +1.7817410e+01 </wgt>
<wgt id='97'> +1.7972811e+01 </wgt>
<wgt id='98'> +1.6820133e+01 </wgt>
<wgt id='99'> +1.7492678e+01 </wgt>
<wgt id='100'> +1.8377159e+01 </wgt>
<wgt id='101'> +1.7403093e+01 </wgt>
<wgt id='102'> +1.6433916e+01 </wgt>
<wgt id='103'> +1.8290745e+01 </wgt>
<wgt id='104'> +1.7117897e+01 </wgt>
<wgt id='105'> +1.8476260e+01 </wgt>
<wgt id='106'> +1.7418535e+01 </wgt>
<wgt id='107'> +1.8269780e+01 </wgt>
<wgt id='108'> +1.6969256e+01 </wgt>
<wgt id='109'> +1.7349313e+01 </wgt>
<wgt id='110'> +1.7882878e+01 </wgt>
<wgt id='111'> +1.7452584e+01 </wgt>
<wgt id='112'> +1.7387679e+01 </wgt>
<wgt id='113'> +1.6973500e+01 </wgt>
<wgt id='114'> +1.8302770e+01 </wgt>
<wgt id='115'> +1.8037007e+01 </wgt>
<wgt id='116'> +1.6823421e+01 </wgt>
<wgt id='117'> +1.7872990e+01 </wgt>
<wgt id='118'> +1.7291453e+01 </wgt>
<wgt id='119'> +1.7394051e+01 </wgt>
<wgt id='120'> +1.7778286e+01 </wgt>
<wgt id='121'> +1.7605032e+01 </wgt>
<wgt id='122'> +1.7503083e+01 </wgt>
<wgt id='123'> +1.7390938e+01 </wgt>
<wgt id='124'> +1.7662184e+01 </wgt>
<wgt id='125'> +1.7848337e+01 </wgt>
<wgt id='126'> +1.7753950e+01 </wgt>
<wgt id='127'> +1.7703023e+01 </wgt>
<wgt id='128'> +1.6817251e+01 </wgt>
<wgt id='129'> +1.9006950e+01 </wgt>
<wgt id='130'> +1.7174950e+01 </wgt>
<wgt id='131'> +1.8480320e+01 </wgt>
<wgt id='132'> +1.7189094e+01 </wgt>
<wgt id='133'> +1.7022614e+01 </wgt>
<wgt id='134'> +1.6801527e+01 </wgt>
<wgt id='135'> +1.7918031e+01 </wgt>
<wgt id='136'> +1.6887357e+01 </wgt>
<wgt id='137'> +1.6461014e+01 </wgt>
<wgt id='138'> +1.5547660e+01 </wgt>
<wgt id='139'> +1.7667321e+01 </wgt>
<wgt id='140'> +1.8620377e+01 </wgt>
<wgt id='141'> +1.7281768e+01 </wgt>
<wgt id='142'> +1.8270807e+01 </wgt>
<wgt id='143'> +1.7351764e+01 </wgt>
<wgt id='144'> +1.8016788e+01 </wgt>
<wgt id='145'> +1.7485585e+01 </wgt>
</rwgt>
</event>
<event>
 3      1 +1.7556000e+01 1.25000000e+02 7.54677100e-03 1.23506900e-01
       21 -1    0    0  502  501 +0.0000000000e+00 +0.0000000000e+00 +3.6340531307e+01 3.6340531307e+01 0.0000000000e+00 0.0000e+00 -1.0000e+00
       21 -1    0    0  501  502 -0.0000000000e+00 -0.0000000000e+00 -1.0749017308e+02 1.0749017308e+02 0.0000000000e+00 0.0000e+00 -1.0000e+00
       25  1    1    2    0    0 +0.0000000000e+00 +0.0000000000e+00 -7.1149641772e+01 1.4383070439e+02 1.2500000000e+02 0.0000e+00 0.0000e+00
<mgrwt>
<rscale>  0 0.12500000E+03</rscale>
<asrwt>0</asrwt>
<pdfrwt beam="1">  1       21 0.55908511E-02 0.12500000E+03</pdfrwt>
<pdfrwt beam="2">  1       21 0.16536949E-01 0.12500000E+03</pdfrwt>
<totfact> 0.71543078E+06</totfact>
</mgrwt>
<rwgt>
<wgt id='1'> +1.6665623e+01 </wgt>
<wgt id='2'> +0.0000000e+00 </wgt>
<wgt id='3'> +1.6665623e+01 </wgt>
<wgt id='4'> +1.5393044e+01 </wgt>
<wgt id='5'> +1.6665623e+01 </wgt>
<wgt id='6'> +1.7556000e+01 </wgt>
<wgt id='7'> +0.0000000e+00 </wgt>
<wgt id='8'> +1.7556000e+01 </wgt>
<wgt id='9'> +1.6665623e+01 </wgt>
<wgt id='10'> +1.7556000e+01 </wgt>
<wgt id='11'> +1.8002212e+01 </wgt>
<wgt id='12'> +0.0000000e+00 </wgt>
<wgt id='13'> +1.8002212e+01 </wgt>
<wgt id='14'> +1.7556000e+01 </wgt>
<wgt id='15'> +1.8002212e+01 </wgt>
<wgt id='16'> +1.6665623e+01 </wgt>
<wgt id='17'> +0.0000000e+00 </wgt>
<wgt id='18'> +1.6665623e+01 </wgt>
<wgt id='19'> +1.5393044e+01 </wgt>
<wgt id='20'> +1.6665623e+01 </wgt>
<wgt id='21'> +0.0000000e+00 </wgt>
<wgt id='22'> +1.7556000e+01 </wgt>
<wgt id='23'> +1.6665623e+01 </wgt>
<wgt id='24'> +1.7556000e+01 </wgt>
<wgt id='25'> +1.8002212e+01 </wgt>
<wgt id='26'> +0.0000000e+00 </wgt>
<wgt id='27'> +1.8002212e+01 </wgt>
<wgt id='28'> +1.7556000e+01 </wgt>
<wgt id='29'> +1.8002212e+01 </wgt>
<wgt id='30'> +1.6665623e+01 </wgt>
<wgt id='31'> +0.0000000e+00 </wgt>
<wgt id='32'> +1.6665623e+01 </wgt>
<wgt id='33'> +1.5393044e+01 </wgt>
<wgt id='34'> +1.6665623e+01 </wgt>
<wgt id='35'> +1.7556000e+01 </wgt>
<wgt id='36'> +0.0000000e+00 </wgt>
<wgt id='37'> +1.7556000e+01 </wgt>
<wgt id='38'> +1.6665623e+01 </wgt>
<wgt id='39'> +1.7556000e+01 </wgt>
<wgt id='40'> +1.8002212e+01 </wgt>
<wgt id='41'> +0.0000000e+00 </wgt>
<wgt id='42'> +1.8002212e+01 </wgt>
<wgt id='43'> +1.7556000e+01 </wgt>
<wgt id='44'> +1.8002212e+01 </wgt>
<wgt id='45'> +1.7556000e+01 </wgt>
<wgt id='46'> +1.7001997e+01 </wgt>
<wgt id='47'> +1.7508254e+01 </wgt>
<wgt id='48'> +1.7165777e+01 </wgt>
<wgt id='49'> +1.7581830e+01 </wgt>
<wgt id='50'> +1.7925130e+01 </wgt>
<wgt id='51'> +1.7281111e+01 </wgt>
<wgt id='52'> +1.7397256e+01 </wgt>
<wgt id='53'> +1.7991180e+01 </wgt>
<wgt id='54'> +1.7641017e+01 </wgt>
<wgt id='55'> +1.6601779e+01 </wgt>
<wgt id='56'> +1.7334137e+01 </wgt>
<wgt id='57'> +1.7386801e+01 </wgt>
<wgt id='58'> +1.8344962e+01 </wgt>
<wgt id='59'> +1.7026056e+01 </wgt>
<wgt id='60'> +1.6840977e+01 </wgt>
<wgt id='61'> +1.8108804e+01 </wgt>
<wgt id='62'> +1.7230884e+01 </wgt>
<wgt id='63'> +1.7606545e+01 </wgt>
<wgt id='64'> +1.8012792e+01 </wgt>
<wgt id='65'> +1.9309849e+01 </wgt>
<wgt id='66'> +1.7103048e+01 </wgt>
<wgt id='67'> +1.7676208e+01 </wgt>
<wgt id='68'> +1.7944434e+01 </wgt>
<wgt id='69'> +1.6295265e+01 </wgt>
<wgt id='70'> +1.7531399e+01 </wgt>
<wgt id='71'> +1.7826472e+01 </wgt>
<wgt id='72'> +1.8612939e+01 </wgt>
<wgt id='73'> +1.7751521e+01 </wgt>
<wgt id='74'> +1.7372998e+01 </wgt>
<wgt id='75'> +1.7610921e+01 </wgt>
<wgt id='76'> +1.7431394e+01 </wgt>
<wgt id='77'> +1.6795661e+01 </wgt>
<wgt id='78'> +1.8095310e+01 </wgt>
<wgt id='79'> +1.6809987e+01 </wgt>
<wgt id='80'> +1.7644697e+01 </wgt>
<wgt id='81'> +1.7618458e+01 </wgt>
<wgt id='82'> +1.8138325e+01 </wgt>
<wgt id='83'> +1.7273989e+01 </wgt>
<wgt id='84'> +1.8210267e+01 </wgt>
<wgt id='85'> +1.8074594e+01 </wgt>
<wgt id='86'> +1.7036811e+01 </wgt>
<wgt id='87'> +1.7367623e+01 </wgt>
<wgt id='88'> +1.7345256e+01 </wgt>
<wgt id='89'> +1.7608918e+01 </wgt>
<wgt id='90'> +1.7609945e+01 </wgt>
<wgt id='91'> +1.8457999e+01 </wgt>
<wgt id='92'> +1.7890276e+01 </wgt>
<wgt id='93'> +1.7029679e+01 </wgt>
<wgt id='94'> +1.7941085e+01 </wgt>
<wgt id='95'> +1.7467230e+01 </wgt>
<wgt id='96'> +1.7612362e+01 </wgt>
<wgt id='97'> +1.8040891e+01 </wgt>
<wgt id='98'> +1.6844493e+01 </wgt>
<wgt id='99'> +1.7453510e+01 </wgt>
<wgt id='100'> +1.8542804e+01 </wgt>
<wgt id='101'> +1.7191924e+01 </wgt>
<wgt id='102'> +1.6254392e+01 </wgt>
<wgt id='103'> +1.8145663e+01 </wgt>
<wgt id='104'> +1.7083304e+01 </wgt>
<wgt id='105'> +1.8616099e+01 </wgt>
<wgt id='106'> +1.7684693e+01 </wgt>
<wgt id='107'> +1.8483264e+01 </wgt>
<wgt id='108'> +1.7221401e+01 </wgt>
<wgt id='109'> +1.7488300e+01 </wgt>
<wgt id='110'> +1.7890573e+01 </wgt>
<wgt id='111'> +1.7568362e+01 </wgt>
<wgt id='112'> +1.7505331e+01 </wgt>
<wgt id='113'> +1.7080682e+01 </wgt>
<wgt id='114'> +1.8526791e+01 </wgt>
<wgt id='115'> +1.8227506e+01 </wgt>
<wgt id='116'> +1.6640421e+01 </wgt>
<wgt id='117'> +1.7919657e+01 </wgt>
<wgt id='118'> +1.7100700e+01 </wgt>
<wgt id='119'> +1.7489601e+01 </wgt>
<wgt id='120'> +1.7860947e+01 </wgt>
<wgt id='121'> +1.7679494e+01 </wgt>
<wgt id='122'> +1.7534947e+01 </wgt>
<wgt id='123'> +1.7324090e+01 </wgt>
<wgt id='124'> +1.7493326e+01 </wgt>
<wgt id='125'> +1.7695812e+01 </wgt>
<wgt id='126'> +1.7609533e+01 </wgt>
<wgt id='127'> +1.7599242e+01 </wgt>
<wgt id='128'> +1.6939754e+01 </wgt>
<wgt id='129'> +1.8973325e+01 </wgt>
<wgt id='130'> +1.7147835e+01 </wgt>
<wgt id='131'> +1.8459933e+01 </wgt>
<wgt id='132'> +1.7147140e+01 </wgt>
<wgt id='133'> +1.6888457e+01 </wgt>
<wgt id='134'> +1.6826517e+01 </wgt>
<wgt id='135'> +1.7889399e+01 </wgt>
<wgt id='136'> +1.6873958e+01 </wgt>
<wgt id='137'> +1.6427640e+01 </wgt>
<wgt id='138'> +1.5382224e+01 </wgt>
<wgt id='139'> +1.7559783e+01 </wgt>
<wgt id='140'> +1.8671441e+01 </wgt>
<wgt id='141'> +1.7282325e+01 </wgt>
<wgt id='142'> +1.8352885e+01 </wgt>
<wgt id='143'> +1.7331326e+01 </wgt>
<wgt id='144'> +1.8129310e+01 </wgt>
<wgt id='145'> +1.7504696e+01 </wgt>
</rwgt>
</event>
<event>
 3      1 +1.7556000e+01 1.25000000e+02 7.54677100e-03 1.23506900e-01
       21 -1    0    0  502  501 +0.0000000000e+00 +0.0000000000e+00 +4.6130588079e+02 4.6130588079e+02 0.0000000000e+00 0.0000e+00 -1.0000e+00
       21 -1    0    0  501  502 -0.0000000000e+00 -0.0000000000e+00 -8.4678088069e+00 8.4678088069e+00 0.0000000000e+00 0.0000e+00 -1.0000e+00
       25  1    1    2    0    0 +0.0000000000e+00 +0.0000000000e+00 +4.5283807198e+02 4.6977368959e+02 1.2500000000e+02 0.0000e+00 0.0000e+00
<mgrwt>
<rscale>  0 0.12500000E+03</rscale>
<asrwt>0</asrwt>
<pdfrwt beam="1">  1       21 0.70970116E-01 0.12500000E+03</pdfrwt>
<pdfrwt beam="2">  1       21 0.13027402E-02 0.12500000E+03</pdfrwt>
<totfact> 0.43732227E+06</totfact>
</mgrwt>
<rwgt>
<wgt id='1'> +1.6939938e+01 </wgt>
<wgt id='2'> +0.0000000e+00 </wgt>
<wgt id='3'> +1.6939938e+01 </wgt>
<wgt id='4'> +1.5941791e+01 </wgt>
<wgt id='5'> +1.6939938e+01 </wgt>
<wgt id='6'> +1.7556000e+01 </wgt>
<wgt id='7'> +0.0000000e+00 </wgt>
<wgt id='8'> +1.7556000e+01 </wgt>
<wgt id='9'> +1.6939938e+01 </wgt>
<wgt id='10'> +1.7556000e+01 </wgt>
<wgt id='11'> +1.7743288e+01 </wgt>
<wgt id='12'> +0.0000000e+00 </wgt>
<wgt id='13'> +1.7743288e+01 </wgt>
<wgt id='14'> +1.7556000e+01 </wgt>
<wgt id='15'> +1.7743288e+01 </wgt>
<wgt id='16'> +1.6939938e+01 </wgt>
<wgt id='17'> +0.0000000e+00 </wgt>
<wgt id='18'> +1.6939938e+01 </wgt>
<wgt id='19'> +1.5941791e+01 </wgt>
<wgt id='20'> +1.6939938e+01 </wgt>
<wgt id='21'> +0.0000000e+00 </wgt>
<wgt id='22'> +1.7556000e+01 </wgt>
<wgt id='23'> +1.6939938e+01 </wgt>
<wgt id='24'> +1.7556000e+01 </wgt>
<wgt id='25'> +1.7743288e+01 </wgt>
<wgt id='26'> +0.0000000e+00 </wgt>
<wgt id='27'> +1.7743288e+01 </wgt>
<wgt id='28'> +1.7556000e+01 </wgt>
<wgt id='29'> +1.7743288e+01 </wgt>
<wgt id='30'> +1.6939938e+01 </wgt>
<wgt id='31'> +0.0000000e+00 </wgt>
<wgt id='32'> +1.6939938e+01 </wgt>
<wgt id='33'> +1.5941791e+01 </wgt>
<wgt id='34'> +1.6939938e+01 </wgt>
<wgt id='35'> +1.7556000e+01 </wgt>
<wgt id='36'> +0.0000000e+00 </wgt>
<wgt id='37'> +1.7556000e+01 </wgt>
<wgt id='38'> +1.6939938e+01 </wgt>
<wgt id='39'> +1.7556000e+01 </wgt>
<wgt id='40'> +1.7743288e+01 </wgt>
<wgt id='41'> +0.0000000e+00 </wgt>
<wgt id='42'> +1.7743288e+01 </wgt>
<wgt id='43'> +1.7556000e+01 </wgt>
<wgt id='44'> +1.7743288e+01 </wgt>
<wgt id='45'> +1.7556000e+01 </wgt>
<wgt id='46'> +1.7653313e+01 </wgt>
<wgt id='47'> +1.7659824e+01 </wgt>
<wgt id='48'> +1.7599060e+01 </wgt>
<wgt id='49'> +1.7711368e+01 </wgt>
<wgt id='50'> +1.9068110e+01 </wgt>
<wgt id='51'> +1.7354049e+01 </wgt>
<wgt id='52'> +1.7643647e+01 </wgt>
<wgt id='53'> +1.7335913e+01 </wgt>
<wgt id='54'> +1.7635702e+01 </wgt>
<wgt id='55'> +1.6668854e+01 </wgt>
<wgt id='56'> +1.6738663e+01 </wgt>
<wgt id='57'> +1.7402664e+01 </wgt>
<wgt id='58'> +1.7832263e+01 </wgt>
<wgt id='59'> +1.7790398e+01 </wgt>
<wgt id='60'> +1.7847263e+01 </wgt>
<wgt id='61'> +1.6620491e+01 </wgt>
<wgt id='62'> +1.7457547e+01 </wgt>
<wgt id='63'> +1.7673059e+01 </wgt>
<wgt id='64'> +1.7546138e+01 </wgt>
<wgt id='65'> +1.8854730e+01 </wgt>
<wgt id='66'> +1.7150048e+01 </wgt>
<wgt id='67'> +1.7544598e+01 </wgt>
<wgt id='68'> +1.8437936e+01 </wgt>
<wgt id='69'> +1.6968004e+01 </wgt>
<wgt id='70'> +1.7318571e+01 </wgt>
<wgt id='71'> +1.7588749e+01 </wgt>
<wgt id='72'> +1.7458755e+01 </wgt>
<wgt id='73'> +1.7616574e+01 </wgt>
<wgt id='74'> +1.8096149e+01 </wgt>
<wgt id='75'> +1.7869669e+01 </wgt>
<wgt id='76'> +1.7208963e+01 </wgt>
<wgt id='77'> +1.7352264e+01 </wgt>
<wgt id='78'> +1.7357857e+01 </wgt>
<wgt id='79'> +1.7412538e+01 </wgt>
<wgt id='80'> +1.7270679e+01 </wgt>
<wgt id='81'> +1.7279630e+01 </wgt>
<wgt id='82'> +1.7666283e+01 </wgt>
<wgt id='83'> +1.7424362e+01 </wgt>
<wgt id='84'> +1.8135558e+01 </wgt>
<wgt id='85'> +1.8127289e+01 </wgt>
<wgt id='86'> +1.7431033e+01 </wgt>
<wgt id='87'> +1.7675080e+01 </wgt>
<wgt id='88'> +1.7269499e+01 </wgt>
<wgt id='89'> +1.8127299e+01 </wgt>
<wgt id='90'> +1.7948414e+01 </wgt>
<wgt id='91'> +1.8114726e+01 </wgt>
<wgt id='92'> +1.6569001e+01 </wgt>
<wgt id='93'> +1.7581057e+01 </wgt>
<wgt id='94'> +1.7480176e+01 </wgt>
<wgt id='95'> +1.7214965e+01 </wgt>
<wgt id='96'> +1.8299321e+01 </wgt>
<wgt id='97'> +1.7604018e+01 </wgt>
<wgt id='98'> +1.7004651e+01 </wgt>
<wgt id='99'> +1.7427463e+01 </wgt>
<wgt id='100'> +1.7427186e+01 </wgt>
<wgt id='101'> +1.8435868e+01 </wgt>
<wgt id='102'> +1.7434216e+01 </wgt>
<wgt id='103'> +1.8635578e+01 </wgt>
<wgt id='104'> +1.7261958e+01 </wgt>
<wgt id='105'> +1.8026556e+01 </wgt>
<wgt id='106'> +1.6638957e+01 </wgt>
<wgt id='107'> +1.7361739e+01 </wgt>
<wgt id='108'> +1.6140653e+01 </wgt>
<wgt id='109'> +1.6967762e+01 </wgt>
<wgt id='110'> +1.7787333e+01 </wgt>
<wgt id='111'> +1.7147908e+01 </wgt>
<wgt id='112'> +1.6917802e+01 </wgt>
<wgt id='113'> +1.6750471e+01 </wgt>
<wgt id='114'> +1.7446168e+01 </wgt>
<wgt id='115'> +1.6963328e+01 </wgt>
<wgt id='116'> +1.7603485e+01 </wgt>
<wgt id='117'> +1.7493712e+01 </wgt>
<wgt id='118'> +1.8055316e+01 </wgt>
<wgt id='119'> +1.7239109e+01 </wgt>
<wgt id='120'> +1.7179634e+01 </wgt>
<wgt id='121'> +1.7488678e+01 </wgt>
<wgt id='122'> +1.7449013e+01 </wgt>
<wgt id='123'> +1.7513913e+01 </wgt>
<wgt id='124'> +1.8444321e+01 </wgt>
<wgt id='125'> +1.8609637e+01 </wgt>
<wgt id='126'> +1.7970902e+01 </wgt>
<wgt id='127'> +1.7983604e+01 </wgt>
<wgt id='128'> +1.6264920e+01 </wgt>
<wgt id='129'> +1.9019339e+01 </wgt>
<wgt id='130'> +1.7057459e+01 </wgt>
<wgt id='131'> +1.8288887e+01 </wgt>
<wgt id='132'> +1.7904731e+01 </wgt>
<wgt id='133'> +1.7696094e+01 </wgt>
<wgt id='134'> +1.7023658e+01 </wgt>
<wgt id='135'> +1.7920611e+01 </wgt>
<wgt id='136'> +1.7591397e+01 </wgt>
<wgt id='137'> +1.6683894e+01 </wgt>
<wgt id='138'> +1.6271878e+01 </wgt>
<wgt id='139'> +1.8068413e+01 </wgt>
<wgt id='140'> +1.8180064e+01 </wgt>
<wgt id='141'> +1.7370502e+01 </wgt>
<wgt id='142'> +1.7480488e+01 </wgt>
<wgt id='143'> +1.7697220e+01 </wgt>
<wgt id='144'> +1.7581805e+01 </wgt>
<wgt id='145'> +1.7418433e+01 </wgt>
</rwgt>
</event>
<event>
 3      1 +1.7556000e+01 1.25000000e+02 7.54677100e-03 1.23506900e-01
       21 -1    0    0  502  501 +0.0000000000e+00 +0.0000000000e+00 +1.6004121159e+01 1.6004121159e+01 0.0000000000e+00 0.0000e+00 1.0000e+00
       21 -1    0    0  501  502 -0.0000000000e+00 -0.0000000000e+00 -2.4407775730e+02 2.4407775730e+02 0.0000000000e+00 0.0000e+00 1.0000e+00
       25  1    1    2    0    0 +0.0000000000e+00 +0.0000000000e+00 -2.2807363614e+02 2.6008187846e+02 1.2500000000e+02 0.0000e+00 0.0000e+00
<mgrwt>
<rscale>  0 0.12500000E+03</rscale>
<asrwt>0</asrwt>
<pdfrwt beam="1">  1       21 0.24621726E-02 0.12500000E+03</pdfrwt>
<pdfrwt beam="2">  1       21 0.37550423E-01 0.12500000E+03</pdfrwt>
<totfact> 0.58941768E+06</totfact>
</mgrwt>
<rwgt>
<wgt id='1'> +1.6775043e+01 </wgt>
<wgt id='2'> +0.0000000e+00 </wgt>
<wgt id='3'> +1.6775043e+01 </wgt>
<wgt id='4'> +1.5612897e+01 </wgt>
<wgt id='5'> +1.6775043e+01 </wgt>
<wgt id='6'> +1.7556000e+01 </wgt>
<wgt id='7'> +0.0000000e+00 </wgt>
<wgt id='8'> +1.7556000e+01 </wgt>
<wgt id='9'> +1.6775043e+01 </wgt>
<wgt id='10'> +1.7556000e+01 </wgt>
<wgt id='11'> +1.7899543e+01 </wgt>
<wgt id='12'> +0.0000000e+00 </wgt>
<wgt id='13'> +1.7899543e+01 </wgt>
<wgt id='14'> +1.7556000e+01 </wgt>
<wgt id='15'> +1.7899543e+01 </wgt>
<wgt id='16'> +1.6775043e+01 </wgt>
<wgt id='17'> +0.0000000e+00 </wgt>
<wgt id='18'> +1.6775043e+01 </wgt>
<wgt id='19'> +1.5612897e+01 </wgt>
<wgt id='20'> +1.6775043e+01 </wgt>
<wgt id='21'> +0.0000000e+00 </wgt>
<wgt id='22'> +1.7556000e+01 </wgt>
<wgt id='23'> +1.6775043e+01 </wgt>
<wgt id='24'> +1.7556000e+01 </wgt>
<wgt id='25'> +1.7899543e+01 </wgt>
<wgt id='26'> +0.0000000e+00 </wgt>
<wgt id='27'> +1.7899543e+01 </wgt>
<wgt id='28'> +1.7556000e+01 </wgt>
<wgt id='29'> +1.7899543e+01 </wgt>
<wgt id='30'> +1.6775043e+01 </wgt>
<wgt id='31'> +0.0000000e+00 </wgt>
<wgt id='32'> +1.6775043e+01 </wgt>
<wgt id='33'> +1.5612897e+01 </wgt>
<wgt id='34'> +1.6775043e+01 </wgt>
<wgt id='35'> +1.7556000e+01 </wgt>
<wgt id='36'> +0.0000000e+00 </wgt>
<wgt id='37'> +1.7556000e+01 </wgt>
<wgt id='38'> +1.6775043e+01 </wgt>
<wgt id='39'> +1.7556000e+01 </wgt>
<wgt id='40'> +1.7899543e+01 </wgt>
<wgt id='41'> +0.0000000e+00 </wgt>
<wgt id='42'> +1.7899543e+01 </wgt>
<wgt id='43'> +1.7556000e+01 </wgt>
<wgt id='44'> +1.7899543e+01 </wgt>
<wgt id='45'> +1.7556000e+01 </wgt>
<wgt id='46'> +1.7259713e+01 </wgt>
<wgt id='47'> +1.7608430e+01 </wgt>
<wgt id='48'> +1.7364308e+01 </wgt>
<wgt id='49'> +1.7689158e+01 </wgt>
<wgt id='50'> +1.8432856e+01 </wgt>
<wgt id='51'> +1.7333492e+01 </wgt>
<wgt id='52'> +1.7476561e+01 </wgt>
<wgt id='53'> +1.7753197e+01 </wgt>
<wgt id='54'> +1.7619254e+01 </wgt>
<wgt id='55'> +1.6436660e+01 </wgt>
<wgt id='56'> +1.7115303e+01 </wgt>
<wgt id='57'> +1.7275571e+01 </wgt>
<wgt id='58'> +1.8184046e+01 </wgt>
<wgt id='59'> +1.7215020e+01 </wgt>
<wgt id='60'> +1.7203903e+01 </wgt>
<wgt id='61'> +1.7753644e+01 </wgt>
<wgt id='62'> +1.7360044e+01 </wgt>
<wgt id='63'> +1.7642965e+01 </wgt>
<wgt id='64'> +1.7831987e+01 </wgt>
<wgt id='65'> +1.9232816e+01 </wgt>
<wgt id='66'> +1.7117297e+01 </wgt>
<wgt id='67'> +1.7628291e+01 </wgt>
<wgt id='68'> +1.8115280e+01 </wgt>
<wgt id='69'> +1.6560617e+01 </wgt>
<wgt id='70'> +1.7424142e+01 </wgt>
<wgt id='71'> +1.7721889e+01 </wgt>
<wgt id='72'> +1.8029936e+01 </wgt>
<wgt id='73'> +1.7741534e+01 </wgt>
<wgt id='74'> +1.7649013e+01 </wgt>
<wgt id='75'> +1.7727713e+01 </wgt>
<wgt id='76'> +1.7242061e+01 </wgt>
<wgt id='77'> +1.7004729e+01 </wgt>
<wgt id='78'> +1.7876284e+01 </wgt>
<wgt id='79'> +1.7010085e+01 </wgt>
<wgt id='80'> +1.7517425e+01 </wgt>
<wgt id='81'> +1.7461863e+01 </wgt>
<wgt id='82'> +1.8061402e+01 </wgt>
<wgt id='83'> +1.7379190e+01 </wgt>
<wgt id='84'> +1.8261378e+01 </wgt>
<wgt id='85'> +1.8226169e+01 </wgt>
<wgt id='86'> +1.7202147e+01 </wgt>
<wgt id='87'> +1.7495629e+01 </wgt>
<wgt id='88'> +1.7362539e+01 </wgt>
<wgt id='89'> +1.7884234e+01 </wgt>
<wgt id='90'> +1.7729258e+01 </wgt>
<wgt id='91'> +1.8423230e+01 </wgt>
<wgt id='92'> +1.7173495e+01 </wgt>
<wgt id='93'> +1.7263294e+01 </wgt>
<wgt id='94'> +1.7764744e+01 </wgt>
<wgt id='95'> +1.7226226e+01 </wgt>
<wgt id='96'> +1.8000118e+01 </wgt>
<wgt id='97'> +1.7897212e+01 </wgt>
<wgt id='98'> +1.6824555e+01 </wgt>
<wgt id='99'> +1.7516062e+01 </wgt>
<wgt id='100'> +1.8186134e+01 </wgt>
<wgt id='101'> +1.7641103e+01 </wgt>
<wgt id='102'> +1.6646809e+01 </wgt>
<wgt id='103'> +1.8423181e+01 </wgt>
<wgt id='104'> +1.7150521e+01 </wgt>
<wgt id='105'> +1.8341947e+01 </wgt>
<wgt id='106'> +1.7168914e+01 </wgt>
<wgt id='107'> +1.8041034e+01 </wgt>
<wgt id='108'> +1.6722725e+01 </wgt>
<wgt id='109'> +1.7215591e+01 </wgt>
<wgt id='110'> +1.7872587e+01 </wgt>
<wgt id='111'> +1.7346915e+01 </wgt>
<wgt id='112'> +1.7257333e+01 </wgt>
<wgt id='113'> +1.6876642e+01 </wgt>
<wgt id='114'> +1.8053382e+01 </wgt>
<wgt id='115'> +1.7783901e+01 </wgt>
<wgt id='116'> +1.7014624e+01 </wgt>
<wgt id='117'> +1.7797015e+01 </wgt>
<wgt id='118'> +1.7490166e+01 </wgt>
<wgt id='119'> +1.7311892e+01 </wgt>
<wgt id='120'> +1.7629841e+01 </wgt>
<wgt id='121'> +1.7543023e+01 </wgt>
<wgt id='122'> +1.7474457e+01 </wgt>
<wgt id='123'> +1.7443580e+01 </wgt>
<wgt id='124'> +1.7848268e+01 </wgt>
<wgt id='125'> +1.8015914e+01 </wgt>
<wgt id='126'> +1.7852841e+01 </wgt>
<wgt id='127'> +1.7800177e+01 </wgt>
<wgt id='128'> +1.6678325e+01 </wgt>
<wgt id='129'> +1.9035049e+01 </wgt>
<wgt id='130'> +1.7184094e+01 </wgt>
<wgt id='131'> +1.8479483e+01 </wgt>
<wgt id='132'> +1.7295152e+01 </wgt>
<wgt id='133'> +1.7173502e+01 </wgt>
<wgt id='134'> +1.6810337e+01 </wgt>
<wgt id='135'> +1.7940134e+01 </wgt>
<wgt id='136'> +1.6961554e+01 </wgt>
<wgt id='137'> +1.6502552e+01 </wgt>
<wgt id='138'> +1.5721000e+01 </wgt>
<wgt id='139'> +1.7776565e+01 </wgt>
<wgt id='140'> +1.8541836e+01 </wgt>
<wgt id='141'> +1.7285223e+01 </wgt>
<wgt id='142'> +1.8150492e+01 </wgt>
<wgt id='143'> +1.7407667e+01 </wgt>
<wgt id='144'> +1.7911414e+01 </wgt>
<wgt id='145'> +1.7474632e+01 </wgt>
</rwgt>
</event>
<event>
 3      1 +1.7556000e+01 1.25000000e+02 7.54677100e-03 1.23506900e-01
       21 -1    0    0  502  501 +0.0000000000e+00 +0.0000000000e+00 +1.2159275108e+03 1.2159275108e+03 0.0000000000e+00 0.0000e+00 -1.0000e+00
       21 -1    0    0  501  502 -0.0000000000e+00 -0.0000000000e+00 -3.2125681549e+00 3.2125681549e+00 0.0000000000e+00 0.0000e+00 -1.0000e+00
       25  1    1    2    0    0 +0.0000000000e+00 +0.0000000000e+00 +1.2127149427e+03 1.2191400790e+03 1.2500000000e+02 0.0000e+00 0.0000e+00
<mgrwt>
<rscale>  0 0.12500000E+03</rscale>
<asrwt>0</asrwt>
<pdfrwt beam="1">  1       21 0.18706540E+00 0.12500000E+03</pdfrwt>
<pdfrwt beam="2">  1       21 0.49424222E-03 0.12500000E+03</pdfrwt>
<totfact> 0.18766122E+06</totfact>
</mgrwt>
<rwgt>
<wgt id='1'> +1.7639727e+01 </wgt>
<wgt id='2'> +0.0000000e+00 </wgt>
<wgt id='3'> +1.7639727e+01 </wgt>
<wgt id='4'> +1.7354469e+01 </wgt>
<wgt id='5'> +1.7639727e+01 </wgt>
<wgt id='6'> +1.7556000e+01 </wgt>
<wgt id='7'> +0.0000000e+00 </wgt>
<wgt id='8'> +1.7556000e+01 </wgt>
<wgt id='9'> +1.7639727e+01 </wgt>
<wgt id='10'> +1.7556000e+01 </wgt>
<wgt id='11'> +1.7100606e+01 </wgt>
<wgt id='12'> +0.0000000e+00 </wgt>
<wgt id='13'> +1.7100606e+01 </wgt>
<wgt id='14'> +1.7556000e+01 </wgt>
<wgt id='15'> +1.7100606e+01 </wgt>
<wgt id='16'> +1.7639727e+01 </wgt>
<wgt id='17'> +0.0000000e+00 </wgt>
<wgt id='18'> +1.7639727e+01 </wgt>
<wgt id='19'> +1.7354469e+01 </wgt>
<wgt id='20'> +1.7639727e+01 </wgt>
<wgt id='21'> +0.0000000e+00 </wgt>
<wgt id='22'> +1.7556000e+01 </wgt>
<wgt id='23'> +1.7639727e+01 </wgt>
<wgt id='24'> +1.7556000e+01 </wgt>
<wgt id='25'> +1.7100606e+01 </wgt>
<wgt id='26'> +0.0000000e+00 </wgt>
<wgt id='27'> +1.7100606e+01 </wgt>
<wgt id='28'> +1.7556000e+01 </wgt>
<wgt id='29'> +1.7100606e+01 </wgt>
<wgt id='30'> +1.7639727e+01 </wgt>
<wgt id='31'> +0.0000000e+00 </wgt>
<wgt id='32'> +1.7639727e+01 </wgt>
<wgt id='33'> +1.7354469e+01 </wgt>
<wgt id='34'> +1.7639727e+01 </wgt>
<wgt id='35'> +1.7556000e+01 </wgt>
<wgt id='36'> +0.0000000e+00 </wgt>
<wgt id='37'> +1.7556000e+01 </wgt>
<wgt id='38'> +1.7639727e+01 </wgt>
<wgt id='39'> +1.7556000e+01 </wgt>
<wgt id='40'> +1.7100606e+01 </wgt>
<wgt id='41'> +0.0000000e+00 </wgt>
<wgt id='42'> +1.7100606e+01 </wgt>
<wgt id='43'> +1.7556000e+01 </wgt>
<wgt id='44'> +1.7100606e+01 </wgt>
<wgt id='45'> +1.7556000e+01 </wgt>
<wgt id='46'> +1.8146844e+01 </wgt>
<wgt id='47'> +1.7644078e+01 </wgt>
<wgt id='48'> +1.7636475e+01 </wgt>
<wgt id='49'> +1.6677235e+01 </wgt>
<wgt id='50'> +1.9520154e+01 </wgt>
<wgt id='51'> +1.6731954e+01 </wgt>
<wgt id='52'> +1.6887502e+01 </wgt>
<wgt id='53'> +1.7126980e+01 </wgt>
<wgt id='54'> +1.8486388e+01 </wgt>
<wgt id='55'> +1.9883995e+01 </wgt>
<wgt id='56'> +1.6992511e+01 </wgt>
<wgt id='57'> +1.8652166e+01 </wgt>
<wgt id='58'> +1.6160808e+01 </wgt>
<wgt id='59'> +1.9339593e+01 </wgt>
<wgt id='60'> +1.8462547e+01 </wgt>
<wgt id='61'> +1.5553574e+01 </wgt>
<wgt id='62'> +1.6561820e+01 </wgt>
<wgt id='63'> +1.8471499e+01 </wgt>
<wgt id='64'> +1.7706707e+01 </wgt>
<wgt id='65'> +1.5933806e+01 </wgt>
<wgt id='66'> +1.7575342e+01 </wgt>
<wgt id='67'> +1.7388069e+01 </wgt>
<wgt id='68'> +2.0265940e+01 </wgt>
<wgt id='69'> +1.8670696e+01 </wgt>
<wgt id='70'> +1.8482608e+01 </wgt>
<wgt id='71'> +1.6200239e+01 </wgt>
<wgt id='72'> +1.6320421e+01 </wgt>
<wgt id='73'> +1.6336511e+01 </wgt>
<wgt id='74'> +1.9956282e+01 </wgt>
<wgt id='75'> +1.9075349e+01 </wgt>
<wgt id='76'> +1.7986416e+01 </wgt>
<wgt id='77'> +1.7149360e+01 </wgt>
<wgt id='78'> +1.5277253e+01 </wgt>
<wgt id='79'> +1.9148520e+01 </wgt>
<wgt id='80'> +1.5672907e+01 </wgt>
<wgt id='81'> +1.7836394e+01 </wgt>
<wgt id='82'> +1.6916062e+01 </wgt>
<wgt id='83'> +1.7031752e+01 </wgt>
<wgt id='84'> +1.6510537e+01 </wgt>
<wgt id='85'> +1.6141670e+01 </wgt>
<wgt id='86'> +1.8339141e+01 </wgt>
<wgt id='87'> +1.7559849e+01 </wgt>
<wgt id='88'> +1.6571236e+01 </wgt>
<wgt id='89'> +1.5844914e+01 </wgt>
<wgt id='90'> +1.6799203e+01 </wgt>
<wgt id='91'> +1.5327215e+01 </wgt>
<wgt id='92'> +1.6479250e+01 </wgt>
<wgt id='93'> +1.8096522e+01 </wgt>
<wgt id='94'> +1.6273688e+01 </wgt>
<wgt id='95'> +1.8467017e+01 </wgt>
<wgt id='96'> +1.8169647e+01 </wgt>
<wgt id='97'> +1.6021297e+01 </wgt>
<wgt id='98'> +1.8787647e+01 </wgt>
<wgt id='99'> +1.5454065e+01 </wgt>
<wgt id='100'> +1.3783553e+01 </wgt>
<wgt id='101'> +2.0296498e+01 </wgt>
<wgt id='102'> +1.9915353e+01 </wgt>
<wgt id='103'> +1.6933284e+01 </wgt>
<wgt id='104'> +1.8315964e+01 </wgt>
<wgt id='105'> +1.7605012e+01 </wgt>
<wgt id='106'> +1.7073117e+01 </wgt>
<wgt id='107'> +1.6778035e+01 </wgt>
<wgt id='108'> +1.6422948e+01 </wgt>
<wgt id='109'> +1.7598642e+01 </wgt>
<wgt id='110'> +1.6550087e+01 </wgt>
<wgt id='111'> +1.7048324e+01 </wgt>
<wgt id='112'> +1.8210733e+01 </wgt>
<wgt id='113'> +1.8617262e+01 </wgt>
<wgt id='114'> +1.8014339e+01 </wgt>
<wgt id='115'> +1.5782318e+01 </wgt>
<wgt id='116'> +1.9228882e+01 </wgt>
<wgt id='117'> +1.7025386e+01 </wgt>
<wgt id='118'> +1.8468247e+01 </wgt>
<wgt id='119'> +1.9196481e+01 </wgt>
<wgt id='120'> +1.7455733e+01 </wgt>
<wgt id='121'> +1.7658372e+01 </wgt>
<wgt id='122'> +1.7308137e+01 </wgt>
<wgt id='123'> +1.6822410e+01 </wgt>
<wgt id='124'> +1.9489577e+01 </wgt>
<wgt id='125'> +2.1424790e+01 </wgt>
<wgt id='126'> +1.7194696e+01 </wgt>
<wgt id='127'> +1.7075907e+01 </wgt>
<wgt id='128'> +1.6721846e+01 </wgt>
<wgt id='129'> +1.7540974e+01 </wgt>
<wgt id='130'> +1.6408699e+01 </wgt>
<wgt id='131'> +1.6125787e+01 </wgt>
<wgt id='132'> +1.9386361e+01 </wgt>
<wgt id='133'> +1.9356818e+01 </wgt>
<wgt id='134'> +1.8471830e+01 </wgt>
<wgt id='135'> +1.6971940e+01 </wgt>
<wgt id='136'> +2.0906516e+01 </wgt>
<wgt id='137'> +1.8203331e+01 </wgt>
<wgt id='138'> +1.8293243e+01 </wgt>
<wgt id='139'> +1.8377198e+01 </wgt>
<wgt id='140'> +1.6985607e+01 </wgt>
<wgt id='141'> +1.9227118e+01 </wgt>
<wgt id='142'> +1.3003138e+01 </wgt>
<wgt id='143'> +1.8050418e+01 </wgt>
<wgt id='144'> +1.6050833e+01 </wgt>
<wgt id='145'> +1.6100880e+01 </wgt>
</rwgt>
</event>
<event>
 3      1 +1.7556000e+01 1.25000000e+02 7.54677100e-03 1.23506900e-01
       21 -1    0    0  502  501 +0.0000000000e+00 +0.0000000000e+00 +5.3231830807e+00 5.3231830807e+00 0.0000000000e+00 0.0000e+00 1.0000e+00
       21 -1    0    0  501  502 -0.0000000000e+00 -0.0000000000e+00 -7.3381845801e+02 7.3381845801e+02 0.0000000000e+00 0.0000e+00 1.0000e+00
       25  1    1    2    0    0 +0.0000000000e+00 +0.0000000000e+00 -7.2849527493e+02 7.3914164109e+02 1.2500000000e+02 0.0000e+00 0.0000e+00
<mgrwt>
<rscale>  0 0.12500000E+03</rscale>
<asrwt>0</asrwt>
<pdfrwt beam="1">  1       21 0.81895153E-03 0.12500000E+03</pdfrwt>
<pdfrwt beam="2">  1       21 0.11289511E+00 0.12500000E+03</pdfrwt>
<totfact> 0.31454510E+06</totfact>
</mgrwt>
<rwgt>
<wgt id='1'> +1.7155169e+01 </wgt>
<wgt id='2'> +0.0000000e+00 </wgt>
<wgt id='3'> +1.7155169e+01 </wgt>
<wgt id='4'> +1.6368369e+01 </wgt>
<wgt id='5'> +1.7155169e+01 </wgt>
<wgt id='6'> +1.7556000e+01 </wgt>
<wgt id='7'> +0.0000000e+00 </wgt>
<wgt id='8'> +1.7556000e+01 </wgt>
<wgt id='9'> +1.7155169e+01 </wgt>
<wgt id='10'> +1.7556000e+01 </wgt>
<wgt id='11'> +1.7538646e+01 </wgt>
<wgt id='12'> +0.0000000e+00 </wgt>
<wgt id='13'> +1.7538646e+01 </wgt>
<wgt id='14'> +1.7556000e+01 </wgt>
<wgt id='15'> +1.7538646e+01 </wgt>
<wgt id='16'> +1.7155169e+01 </wgt>
<wgt id='17'> +0.0000000e+00 </wgt>
<wgt id='18'> +1.7155169e+01 </wgt>
<wgt id='19'> +1.6368369e+01 </wgt>
<wgt id='20'> +1.7155169e+01 </wgt>
<wgt id='21'> +0.0000000e+00 </wgt>
<wgt id='22'> +1.7556000e+01 </wgt>
<wgt id='23'> +1.7155169e+01 </wgt>
<wgt id='24'> +1.7556000e+01 </wgt>
<wgt id='25'> +1.7538646e+01 </wgt>
<wgt id='26'> +0.0000000e+00 </wgt>
<wgt id='27'> +1.7538646e+01 </wgt>
<wgt id='28'> +1.7556000e+01 </wgt>
<wgt id='29'> +1.7538646e+01 </wgt>
<wgt id='30'> +1.7155169e+01 </wgt>
<wgt id='31'> +0.0000000e+00 </wgt>
<wgt id='32'> +1.7155169e+01 </wgt>
<wgt id='33'> +1.6368369e+01 </wgt>
<wgt id='34'> +1.7155169e+01 </wgt>
<wgt id='35'> +1.7556000e+01 </wgt>
<wgt id='36'> +0.0000000e+00 </wgt>
<wgt id='37'> +1.7556000e+01 </wgt>
<wgt id='38'> +1.7155169e+01 </wgt>
<wgt id='39'> +1.7556000e+01 </wgt>
<wgt id='40'> +1.7538646e+01 </wgt>
<wgt id='41'> +0.0000000e+00 </wgt>
<wgt id='42'> +1.7538646e+01 </wgt>
<wgt id='43'> +1.7556000e+01 </wgt>
<wgt id='44'> +1.7538646e+01 </wgt>
<wgt id='45'> +1.7556000e+01 </wgt>
<wgt id='46'> +1.7993519e+01 </wgt>
<wgt id='47'> +1.7588293e+01 </wgt>
<wgt id='48'> +1.7682557e+01 </wgt>
<wgt id='49'> +1.7480476e+01 </wgt>
<wgt id='50'> +1.9480661e+01 </wgt>
<wgt id='51'> +1.7220096e+01 </wgt>
<wgt id='52'> +1.7657936e+01 </wgt>
<wgt id='53'> +1.6994099e+01 </wgt>
<wgt id='54'> +1.7862644e+01 </wgt>
<wgt id='55'> +1.7581900e+01 </wgt>
<wgt id='56'> +1.6512285e+01 </wgt>
<wgt id='57'> +1.7871751e+01 </wgt>
<wgt id='58'> +1.7268005e+01 </wgt>
<wgt id='59'> +1.8573706e+01 </wgt>
<wgt id='60'> +1.8410979e+01 </wgt>
<wgt id='61'> +1.5322290e+01 </wgt>
<wgt id='62'> +1.7327964e+01 </wgt>
<wgt id='63'> +1.7812438e+01 </wgt>
<wgt id='64'> +1.7475299e+01 </wgt>
<wgt id='65'> +1.8004158e+01 </wgt>
<wgt id='66'> +1.7231099e+01 </wgt>
<wgt id='67'> +1.7436349e+01 </wgt>
<wgt id='68'> +1.8886604e+01 </wgt>
<wgt id='69'> +1.7457747e+01 </wgt>
<wgt id='70'> +1.7405287e+01 </wgt>
<wgt id='71'> +1.7275095e+01 </wgt>
<wgt id='72'> +1.7106373e+01 </wgt>
<wgt id='73'> +1.7245592e+01 </wgt>
<wgt id='74'> +1.8655109e+01 </wgt>
<wgt id='75'> +1.8069597e+01 </wgt>
<wgt id='76'> +1.7447112e+01 </wgt>
<wgt id='77'> +1.7570066e+01 </wgt>
<wgt id='78'> +1.6601434e+01 </wgt>
<wgt id='79'> +1.7969050e+01 </wgt>
<wgt id='80'> +1.6845102e+01 </wgt>
<wgt id='81'> +1.7247566e+01 </wgt>
<wgt id='82'> +1.7022909e+01 </wgt>
<wgt id='83'> +1.7302250e+01 </wgt>
<wgt id='84'> +1.7676877e+01 </wgt>
<wgt id='85'> +1.7582918e+01 </wgt>
<wgt id='86'> +1.7690033e+01 </wgt>
<wgt id='87'> +1.7774392e+01 </wgt>
<wgt id='88'> +1.7024523e+01 </wgt>
<wgt id='89'> +1.7850811e+01 </wgt>
<wgt id='90'> +1.7937628e+01 </wgt>
<wgt id='91'> +1.7331765e+01 </wgt>
<wgt id='92'> +1.6342456e+01 </wgt>
<wgt id='93'> +1.7840389e+01 </wgt>
<wgt id='94'> +1.7045331e+01 </wgt>
<wgt id='95'> +1.7658920e+01 </wgt>
<wgt id='96'> +1.8254888e+01 </wgt>
<wgt id='97'> +1.7114287e+01 </wgt>
<wgt id='98'> +1.7484213e+01 </wgt>
<wgt id='99'> +1.6954269e+01 </wgt>
<wgt id='100'> +1.6216550e+01 </wgt>
<wgt id='101'> +1.9310547e+01 </wgt>
<wgt id='102'> +1.8452720e+01 </wgt>
<wgt id='103'> +1.8387235e+01 </wgt>
<wgt id='104'> +1.7497592e+01 </wgt>
<wgt id='105'> +1.7822391e+01 </wgt>
<wgt id='106'> +1.6489017e+01 </wgt>
<wgt id='107'> +1.6799093e+01 </wgt>
<wgt id='108'> +1.5925309e+01 </wgt>
<wgt id='109'> +1.7056519e+01 </wgt>
<wgt id='110'> +1.7522342e+01 </wgt>
<wgt id='111'> +1.7105655e+01 </wgt>
<wgt id='112'> +1.6984268e+01 </wgt>
<wgt id='113'> +1.7036049e+01 </wgt>
<wgt id='114'> +1.7295896e+01 </wgt>
<wgt id='115'> +1.6257428e+01 </wgt>
<wgt id='116'> +1.8255539e+01 </wgt>
<wgt id='117'> +1.7175152e+01 </wgt>
<wgt id='118'> +1.8488300e+01 </wgt>
<wgt id='119'> +1.7611027e+01 </wgt>
<wgt id='120'> +1.7098932e+01 </wgt>
<wgt id='121'> +1.7642871e+01 </wgt>
<wgt id='122'> +1.7450630e+01 </wgt>
<wgt id='123'> +1.7421494e+01 </wgt>
<wgt id='124'> +1.9040730e+01 </wgt>
<wgt id='125'> +1.9474724e+01 </wgt>
<wgt id='126'> +1.7825064e+01 </wgt>
<wgt id='127'> +1.7894150e+01 </wgt>
<wgt id='128'> +1.6060169e+01 </wgt>
<wgt id='129'> +1.8705900e+01 </wgt>
<wgt id='130'> +1.6780379e+01 </wgt>
<wgt id='131'> +1.7712406e+01 </wgt>
<wgt id='132'> +1.8743748e+01 </wgt>
<wgt id='133'> +1.8351849e+01 </wgt>
<wgt id='134'> +1.7503564e+01 </wgt>
<wgt id='135'> +1.7696707e+01 </wgt>
<wgt id='136'> +1.8841213e+01 </wgt>
<wgt id='137'> +1.7029538e+01 </wgt>
<wgt id='138'> +1.6966386e+01 </wgt>
<wgt id='139'> +1.8284013e+01 </wgt>
<wgt id='140'> +1.7665791e+01 </wgt>
<wgt id='141'> +1.7747451e+01 </wgt>
<wgt id='142'> +1.6303587e+01 </wgt>
<wgt id='143'> +1.8018727e+01 </wgt>
<wgt id='144'> +1.7100664e+01 </wgt>
<wgt id='145'> +1.7100359e+01 </wgt>
</rwgt>
</event>
<event>
 3      1 +1.7556000e+01 1.25000000e+02 7.54677100e-03 1.23506900e-01
       21 -1    0    0  502  501 +0.0000000000e+00 +0.0000000000e+00 +7.9139541068e+01 7.9139541068e+01 0.0000000000e+00 0.0000e+00 1.0000e+00
       21 -1    0    0  501  502 -0.0000000000e+00 -0.0000000000e+00 -4.9359017595e+01 4.9359017595e+01 0.0000000000e+00 0.0000e+00 1.0000e+00
       25  1    1    2    0    0 +0.0000000000e+00 +0.0000000000e+00 +2.9780523474e+01 1.2849855866e+02 1.2500000000e+02 0.0000e+00 0.0000e+00
<mgrwt>
<rscale>  0 0.12500000E+03</rscale>
<asrwt>0</asrwt>
<pdfrwt beam="1">  1       21 0.12175314E-01 0.12500000E+03</pdfrwt>
<pdfrwt beam="2">  1       21 0.75936950E-02 0.12500000E+03</pdfrwt>
<totfact> 0.73566316E+06</totfact>
</mgrwt>
<rwgt>
<wgt id='1'> +1.6649412e+01 </wgt>
<wgt id='2'> +0.0000000e+00 </wgt>
<wgt id='3'> +1.6649412e+01 </wgt>
<wgt id='4'> +1.5360410e+01 </wgt>
<wgt id='5'> +1.6649412e+01 </wgt>
<wgt id='6'> +1.7556000e+01 </wgt>
<wgt id='7'> +0.0000000e+00 </wgt>
<wgt id='8'> +1.7556000e+01 </wgt>
<wgt id='9'> +1.6649412e+01 </wgt>
<wgt id='10'> +1.7556000e+01 </wgt>
<wgt id='11'> +1.8017374e+01 </wgt>
<wgt id='12'> +0.0000000e+00 </wgt>
<wgt id='13'> +1.8017374e+01 </wgt>
<wgt id='14'> +1.7556000e+01 </wgt>
<wgt id='15'> +1.8017374e+01 </wgt>
<wgt id='16'> +1.6649412e+01 </wgt>
<wgt id='17'> +0.0000000e+00 </wgt>
<wgt id='18'> +1.6649412e+01 </wgt>
<wgt id='19'> +1.5360410e+01 </wgt>
<wgt id='20'> +1.6649412e+01 </wgt>
<wgt id='21'> +0.0000000e+00 </wgt>
<wgt id='22'> +1.7556000e+01 </wgt>
<wgt id='23'> +1.6649412e+01 </wgt>
<wgt id='24'> +1.7556000e+01 </wgt>
<wgt id='25'> +1.8017374e+01 </wgt>
<wgt id='26'> +0.0000000e+00 </wgt>
<wgt id='27'> +1.8017374e+01 </wgt>
<wgt id='28'> +1.7556000e+01 </wgt>
<wgt id='29'> +1.8017374e+01 </wgt>
<wgt id='30'> +1.6649412e+01 </wgt>
<wgt id='31'> +0.0000000e+00 </wgt>
<wgt id='32'> +1.6649412e+01 </wgt>
<wgt id='33'> +1.5360410e+01 </wgt>
<wgt id='34'> +1.6649412e+01 </wgt>
<wgt id='35'> +1.7556000e+01 </wgt>
<wgt id='36'> +0.0000000e+00 </wgt>
<wgt id='37'> +1.7556000e+01 </wgt>
<wgt id='38'> +1.6649412e+01 </wgt>
<wgt id='39'> +1.7556000e+01 </wgt>
<wgt id='40'> +1.8017374e+01 </wgt>
<wgt id='41'> +0.0000000e+00 </wgt>
<wgt id='42'> +1.8017374e+01 </wgt>
<wgt id='43'> +1.7556000e+01 </wgt>
<wgt id='44'> +1.8017374e+01 </wgt>
<wgt id='45'> +1.7556000e+01 </wgt>
<wgt id='46'> +1.6967000e+01 </wgt>
<wgt id='47'> +1.7490860e+01 </wgt>
<wgt id='48'> +1.7135636e+01 </wgt>
<wgt id='49'> +1.7562239e+01 </wgt>
<wgt id='50'> +1.7849046e+01 </wgt>
<wgt id='51'> +1.7272949e+01 </wgt>
<wgt id='52'> +1.7394139e+01 </wgt>
<wgt id='53'> +1.8018812e+01 </wgt>
<wgt id='54'> +1.7641596e+01 </wgt>
<wgt id='55'> +1.6642322e+01 </wgt>
<wgt id='56'> +1.7361478e+01 </wgt>
<wgt id='57'> +1.7413343e+01 </wgt>
<wgt id='58'> +1.8365126e+01 </wgt>
<wgt id='59'> +1.7014202e+01 </wgt>
<wgt id='60'> +1.6798076e+01 </wgt>
<wgt id='61'> +1.8141972e+01 </wgt>
<wgt id='62'> +1.7210324e+01 </wgt>
<wgt id='63'> +1.7599221e+01 </wgt>
<wgt id='64'> +1.8030316e+01 </wgt>
<wgt id='65'> +1.9310827e+01 </wgt>
<wgt id='66'> +1.7101991e+01 </wgt>
<wgt id='67'> +1.7683953e+01 </wgt>
<wgt id='68'> +1.7921935e+01 </wgt>
<wgt id='69'> +1.6256920e+01 </wgt>
<wgt id='70'> +1.7548296e+01 </wgt>
<wgt id='71'> +1.7847625e+01 </wgt>
<wgt id='72'> +1.8708768e+01 </wgt>
<wgt id='73'> +1.7750343e+01 </wgt>
<wgt id='74'> +1.7334752e+01 </wgt>
<wgt id='75'> +1.7591702e+01 </wgt>
<wgt id='76'> +1.7469995e+01 </wgt>
<wgt id='77'> +1.6770699e+01 </wgt>
<wgt id='78'> +1.8117518e+01 </wgt>
<wgt id='79'> +1.6786336e+01 </wgt>
<wgt id='80'> +1.7664084e+01 </wgt>
<wgt id='81'> +1.7642811e+01 </wgt>
<wgt id='82'> +1.8139505e+01 </wgt>
<wgt id='83'> +1.7255280e+01 </wgt>
<wgt id='84'> +1.8196390e+01 </wgt>
<wgt id='85'> +1.8039697e+01 </wgt>
<wgt id='86'> +1.7012392e+01 </wgt>
<wgt id='87'> +1.7350000e+01 </wgt>
<wgt id='88'> +1.7339620e+01 </wgt>
<wgt id='89'> +1.7567686e+01 </wgt>
<wgt id='90'> +1.7598336e+01 </wgt>
<wgt id='91'> +1.8455095e+01 </wgt>
<wgt id='92'> +1.8020619e+01 </wgt>
<wgt id='93'> +1.6995701e+01 </wgt>
<wgt id='94'> +1.7969875e+01 </wgt>
<wgt id='95'> +1.7511900e+01 </wgt>
<wgt id='96'> +1.7549350e+01 </wgt>
<wgt id='97'> +1.8060168e+01 </wgt>
<wgt id='98'> +1.6856361e+01 </wgt>
<wgt id='99'> +1.7439359e+01 </wgt>
<wgt id='100'> +1.8588006e+01 </wgt>
<wgt id='101'> +1.7135015e+01 </wgt>
<wgt id='102'> +1.6207378e+01 </wgt>
<wgt id='103'> +1.8101758e+01 </wgt>
<wgt id='104'> +1.7072740e+01 </wgt>
<wgt id='105'> +1.8658238e+01 </wgt>
<wgt id='106'> +1.7765065e+01 </wgt>
<wgt id='107'> +1.8543034e+01 </wgt>
<wgt id='108'> +1.7295926e+01 </wgt>
<wgt id='109'> +1.7528883e+01 </wgt>
<wgt id='110'> +1.7892729e+01 </wgt>
<wgt id='111'> +1.7603667e+01 </wgt>
<wgt id='112'> +1.7537076e+01 </wgt>
<wgt id='113'> +1.7112663e+01 </wgt>
<wgt id='114'> +1.8584888e+01 </wgt>
<wgt id='115'> +1.8268897e+01 </wgt>
<wgt id='116'> +1.6587897e+01 </wgt>
<wgt id='117'> +1.7926992e+01 </wgt>
<wgt id='118'> +1.7046146e+01 </wgt>
<wgt id='119'> +1.7519307e+01 </wgt>
<wgt id='120'> +1.7870734e+01 </wgt>
<wgt id='121'> +1.7702996e+01 </wgt>
<wgt id='122'> +1.7544314e+01 </wgt>
<wgt id='123'> +1.7301752e+01 </wgt>
<wgt id='124'> +1.7447256e+01 </wgt>
<wgt id='125'> +1.7653525e+01 </wgt>
<wgt id='126'> +1.7554376e+01 </wgt>
<wgt id='127'> +1.7567974e+01 </wgt>
<wgt id='128'> +1.6972286e+01 </wgt>
<wgt id='129'> +1.8963789e+01 </wgt>
<wgt id='130'> +1.7137400e+01 </wgt>
<wgt id='131'> +1.8451127e+01 </wgt>
<wgt id='132'> +1.7146663e+01 </wgt>
<wgt id='133'> +1.6851795e+01 </wgt>
<wgt id='134'> +1.6839994e+01 </wgt>
<wgt id='135'> +1.7880324e+01 </wgt>
<wgt id='136'> +1.6879578e+01 </wgt>
<wgt id='137'> +1.6419026e+01 </wgt>
<wgt id='138'> +1.5334351e+01 </wgt>
<wgt id='139'> +1.7528563e+01 </wgt>
<wgt id='140'> +1.8681738e+01 </wgt>
<wgt id='141'> +1.7282970e+01 </wgt>
<wgt id='142'> +1.8371165e+01 </wgt>
<wgt id='143'> +1.7332703e+01 </wgt>
<wgt id='144'> +1.8165199e+01 </wgt>
<wgt id='145'> +1.7512230e+01 </wgt>
</rwgt>
</event>
<event>
 3      1 +1.7556000e+01 1.25000000e+02 7.54677100e-03 1.23506900e-01
       21 -1    0    0  502  501 +0.0000000000e+00 +0.0000000000e+00 +2.5746575773e+01 2.5746575773e+01 0.0000000000e+00 0.0000e+00 -1.0000e+00
       21 -1    0    0  501  502 -0.0000000000e+00 -0.0000000000e+00 -1.5171920470e+02 1.5171920470e+02 0.0000000000e+00 0.0000e+00 -1.0000e+00
       25  1    1    2    0    0 +0.0000000000e+00 +0.0000000000e+00 -1.2597262893e+02 1.7746578047e+02 1.2500000000e+02 0.0000e+00 0.0000e+00
<mgrwt>
<rscale>  0 0.12500000E+03</rscale>
<asrwt>0</asrwt>
<pdfrwt beam="1">  1       21 0.39610116E-02 0.12500000E+03</pdfrwt>
<pdfrwt beam="2">  1       21 0.23341416E-01 0.12500000E+03</pdfrwt>
<totfact> 0.67443450E+06</totfact>
</mgrwt>
<rwgt>
<wgt id='1'> +1.6699824e+01 </wgt>
<wgt id='2'> +0.0000000e+00 </wgt>
<wgt id='3'> +1.6699824e+01 </wgt>
<wgt id='4'> +1.5461807e+01 </wgt>
<wgt id='5'> +1.6699824e+01 </wgt>
<wgt id='6'> +1.7556000e+01 </wgt>
<wgt id='7'> +0.0000000e+00 </wgt>
<wgt id='8'> +1.7556000e+01 </wgt>
<wgt id='9'> +1.6699824e+01 </wgt>
<wgt id='10'> +1.7556000e+01 </wgt>
<wgt id='11'> +1.7970158e+01 </wgt>
<wgt id='12'> +0.0000000e+00 </wgt>
<wgt id='13'> +1.7970158e+01 </wgt>
<wgt id='14'> +1.7556000e+01 </wgt>
<wgt id='15'> +1.7970158e+01 </wgt>
<wgt id='16'> +1.6699824e+01 </wgt>
<wgt id='17'> +0.0000000e+00 </wgt>
<wgt id='18'> +1.6699824e+01 </wgt>
<wgt id='19'> +1.5461807e+01 </wgt>
<wgt id='20'> +1.6699824e+01 </wgt>
<wgt id='21'> +0.0000000e+00 </wgt>
<wgt id='22'> +1.7556000e+01 </wgt>
<wgt id='23'> +1.6699824e+01 </wgt>
<wgt id='24'> +1.7556000e+01 </wgt>
<wgt id='25'> +1.7970158e+01 </wgt>
<wgt id='26'> +0.0000000e+00 </wgt>
<wgt id='27'> +1.7970158e+01 </wgt>
<wgt id='28'> +1.7556000e+01 </wgt>
<wgt id='29'> +1.7970158e+01 </wgt>
<wgt id='30'> +1.6699824e+01 </wgt>
<wgt id='31'> +0.0000000e+00 </wgt>
<wgt id='32'> +1.6699824e+01 </wgt>
<wgt id='33'> +1.5461807e+01 </wgt>
<wgt id='34'> +1.6699824e+01 </wgt>
<wgt id='35'> +1.7556000e+01 </wgt>
<wgt id='36'> +0.0000000e+00 </wgt>
<wgt id='37'> +1.7556000e+01 </wgt>
<wgt id='38'> +1.6699824e+01 </wgt>
<wgt id='39'> +1.7556000e+01 </wgt>
<wgt id='40'> +1.7970158e+01 </wgt>
<wgt id='41'> +0.0000000e+00 </wgt>
<wgt id='42'> +1.7970158e+01 </wgt>
<wgt id='43'> +1.7556000e+01 </wgt>
<wgt id='44'> +1.7970158e+01 </wgt>
<wgt id='45'> +1.7556000e+01 </wgt>
<wgt id='46'> +1.7078203e+01 </wgt>
<wgt id='47'> +1.7543115e+01 </wgt>
<wgt id='48'> +1.7228598e+01 </wgt>
<wgt id='49'> +1.7620213e+01 </wgt>
<wgt id='50'> +1.8084609e+01 </wgt>
<wgt id='51'> +1.7298234e+01 </wgt>
<wgt id='52'> +1.7412408e+01 </wgt>
<wgt id='53'> +1.7926529e+01 </wgt>
<wgt id='54'> +1.7636707e+01 </wgt>
<wgt id='55'> +1.6528481e+01 </wgt>
<wgt id='56'> +1.7272510e+01 </wgt>
<wgt id='57'> +1.7338604e+01 </wgt>
<wgt id='58'> +1.8300146e+01 </wgt>
<wgt id='59'> +1.7064295e+01 </wgt>
<wgt id='60'> +1.6940359e+01 </wgt>
<wgt id='61'> +1.8025240e+01 </wgt>
<wgt id='62'> +1.7273192e+01 </wgt>
<wgt id='63'> +1.7620281e+01 </wgt>
<wgt id='64'> +1.7967280e+01 </wgt>
<wgt id='65'> +1.9300096e+01 </wgt>
<wgt id='66'> +1.7106300e+01 </wgt>
<wgt id='67'> +1.7660980e+01 </wgt>
<wgt id='68'> +1.7993788e+01 </wgt>
<wgt id='69'> +1.6376352e+01 </wgt>
<wgt id='70'> +1.7496744e+01 </wgt>
<wgt id='71'> +1.7788063e+01 </wgt>
<wgt id='72'> +1.8419245e+01 </wgt>
<wgt id='73'> +1.7752222e+01 </wgt>
<wgt id='74'> +1.7455352e+01 </wgt>
<wgt id='75'> +1.7649645e+01 </wgt>
<wgt id='76'> +1.7359276e+01 </wgt>
<wgt id='77'> +1.6853406e+01 </wgt>
<wgt id='78'> +1.8040373e+01 </wgt>
<wgt id='79'> +1.6864443e+01 </wgt>
<wgt id='80'> +1.7605373e+01 </wgt>
<wgt id='81'> +1.7568468e+01 </wgt>
<wgt id='82'> +1.8128350e+01 </wgt>
<wgt id='83'> +1.7311122e+01 </wgt>
<wgt id='84'> +1.8235028e+01 </wgt>
<wgt id='85'> +1.8137987e+01 </wgt>
<wgt id='86'> +1.7088113e+01 </wgt>
<wgt id='87'> +1.7405866e+01 </wgt>
<wgt id='88'> +1.7355185e+01 </wgt>
<wgt id='89'> +1.7695956e+01 </wgt>
<wgt id='90'> +1.7639558e+01 </wgt>
<wgt id='91'> +1.8458353e+01 </wgt>
<wgt id='92'> +1.7638835e+01 </wgt>
<wgt id='93'> +1.7101480e+01 </wgt>
<wgt id='94'> +1.7884275e+01 </wgt>
<wgt id='95'> +1.7379418e+01 </wgt>
<wgt id='96'> +1.7741314e+01 </wgt>
<wgt id='97'> +1.7999465e+01 </wgt>
<wgt id='98'> +1.6826542e+01 </wgt>
<wgt id='99'> +1.7479551e+01 </wgt>
<wgt id='100'> +1.8442774e+01 </wgt>
<wgt id='101'> +1.7319447e+01 </wgt>
<wgt id='102'> +1.6361920e+01 </wgt>
<wgt id='103'> +1.8236457e+01 </wgt>
<wgt id='104'> +1.7104838e+01 </wgt>
<wgt id='105'> +1.8528793e+01 </wgt>
<wgt id='106'> +1.7518473e+01 </wgt>
<wgt id='107'> +1.8352893e+01 </wgt>
<wgt id='108'> +1.7064957e+01 </wgt>
<wgt id='109'> +1.7402137e+01 </wgt>
<wgt id='110'> +1.7886018e+01 </wgt>
<wgt id='111'> +1.7495774e+01 </wgt>
<wgt id='112'> +1.7434084e+01 </wgt>
<wgt id='113'> +1.7013795e+01 </wgt>
<wgt id='114'> +1.8391753e+01 </wgt>
<wgt id='115'> +1.8117376e+01 </wgt>
<wgt id='116'> +1.6752766e+01 </wgt>
<wgt id='117'> +1.7894294e+01 </wgt>
<wgt id='118'> +1.7217919e+01 </wgt>
<wgt id='119'> +1.7429258e+01 </wgt>
<wgt id='120'> +1.7817618e+01 </wgt>
<wgt id='121'> +1.7632277e+01 </wgt>
<wgt id='122'> +1.7515042e+01 </wgt>
<wgt id='123'> +1.7367029e+01 </wgt>
<wgt id='124'> +1.7595628e+01 </wgt>
<wgt id='125'> +1.7788464e+01 </wgt>
<wgt id='126'> +1.7705154e+01 </wgt>
<wgt id='127'> +1.7664098e+01 </wgt>
<wgt id='128'> +1.6865946e+01 </wgt>
<wgt id='129'> +1.8994174e+01 </wgt>
<wgt id='130'> +1.7166237e+01 </wgt>
<wgt id='131'> +1.8474481e+01 </wgt>
<wgt id='132'> +1.7165932e+01 </wgt>
<wgt id='133'> +1.6969757e+01 </wgt>
<wgt id='134'> +1.6807317e+01 </wgt>
<wgt id='135'> +1.7907744e+01 </wgt>
<wgt id='136'> +1.6875999e+01 </wgt>
<wgt id='137'> +1.6447514e+01 </wgt>
<wgt id='138'> +1.5484111e+01 </wgt>
<wgt id='139'> +1.7626178e+01 </wgt>
<wgt id='140'> +1.8642775e+01 </wgt>
<wgt id='141'> +1.7281477e+01 </wgt>
<wgt id='142'> +1.8306056e+01 </wgt>
<wgt id='143'> +1.7339726e+01 </wgt>
<wgt id='144'> +1.8058455e+01 </wgt>
<wgt id='145'> +1.7491818e+01 </wgt>
</rwgt>
</event>
<event>
 3      1 +1.7556000e+01 1.25000000e+02 7.54677100e-03 1.23506900e-01
       21 -1    0    0  502  501 +0.0000000000e+00 +0.0000000000e+00 +1.8102896069e+01 1.8102896069e+01 0.0000000000e+00 0.0000e+00 1.0000e+00
       21 -1    0    0  501  502 -0.0000000000e+00 -0.0000000000e+00 -2.1578039144e+02 2.1578039144e+02 0.0000000000e+00 0.0000e+00 1.0000e+00
       25  1    1    2    0    0 +0.0000000000e+00 +0.0000000000e+00 -1.9767749537e+02 2.3388328751e+02 1.2500000000e+02 0.0000e+00 0.0000e+00
<mgrwt>
<rscale>  0 0.12500000E+03</rscale>
<asrwt>0</asrwt>
<pdfrwt beam="1">  1       21 0.27850609E-02 0.12500000E+03</pdfrwt>
<pdfrwt beam="2">  1       21 0.33196983E-01 0.12500000E+03</pdfrwt>
<totfact> 0.61429634E+06</totfact>
</mgrwt>
<rwgt>
<wgt id='1'> +1.6752645e+01 </wgt>
<wgt id='2'> +0.0000000e+00 </wgt>
<wgt id='3'> +1.6752645e+01 </wgt>
<wgt id='4'> +1.5567885e+01 </wgt>
<wgt id='5'> +1.6752645e+01 </wgt>
<wgt id='6'> +1.7556000e+01 </wgt>
<wgt id='7'> +0.0000000e+00 </wgt>
<wgt id='8'> +1.7556000e+01 </wgt>
<wgt id='9'> +1.6752645e+01 </wgt>
<wgt id='10'> +1.7556000e+01 </wgt>
<wgt id='11'> +1.7920548e+01 </wgt>
<wgt id='12'> +0.0000000e+00 </wgt>
<wgt id='13'> +1.7920548e+01 </wgt>
<wgt id='14'> +1.7556000e+01 </wgt>
<wgt id='15'> +1.7920548e+01 </wgt>
<wgt id='16'> +1.6752645e+01 </wgt>
<wgt id='17'> +0.0000000e+00 </wgt>
<wgt id='18'> +1.6752645e+01 </wgt>
<wgt id='19'> +1.5567885e+01 </wgt>
<wgt id='20'> +1.6752645e+01 </wgt>
<wgt id='21'> +0.0000000e+00 </wgt>
<wgt id='22'> +1.7556000e+01 </wgt>
<wgt id='23'> +1.6752645e+01 </wgt>
<wgt id='24'> +1.7556000e+01 </wgt>
<wgt id='25'> +1.7920548e+01 </wgt>
<wgt id='26'> +0.0000000e+00 </wgt>
<wgt id='27'> +1.7920548e+01 </wgt>
<wgt id='28'> +1.7556000e+01 </wgt>
<wgt id='29'> +1.7920548e+01 </wgt>
<wgt id='30'> +1.6752645e+01 </wgt>
<wgt id='31'> +0.0000000e+00 </wgt>
<wgt id='32'> +1.6752645e+01 </wgt>
<wgt id='33'> +1.5567885e+01 </wgt>
<wgt id='34'> +1.6752645e+01 </wgt>
<wgt id='35'> +1.7556000e+01 </wgt>
<wgt id='36'> +0.0000000e+00 </wgt>
<wgt id='37'> +1.7556000e+01 </wgt>
<wgt id='38'> +1.6752645e+01 </wgt>
<wgt id='39'> +1.7556000e+01 </wgt>
<wgt id='40'> +1.7920548e+01 </wgt>
<wgt id='41'> +0.0000000e+00 </wgt>
<wgt id='42'> +1.7920548e+01 </wgt>
<wgt id='43'> +1.7556000e+01 </wgt>
<wgt id='44'> +1.7920548e+01 </wgt>
<wgt id='45'> +1.7556000e+01 </wgt>
<wgt id='46'> +1.7203172e+01 </wgt>
<wgt id='47'> +1.7590866e+01 </wgt>
<wgt id='48'> +1.7324067e+01 </wgt>
<wgt id='49'> +1.7671054e+01 </wgt>
<wgt id='50'> +1.8329181e+01 </wgt>
<wgt id='51'> +1.7323504e+01 </wgt>
<wgt id='52'> +1.7453730e+01 </wgt>
<wgt id='53'> +1.7809634e+01 </wgt>
<wgt id='54'> +1.7624913e+01 </wgt>
<wgt id='55'> +1.6452772e+01 </wgt>
<wgt id='56'> +1.7165416e+01 </wgt>
<wgt id='57'> +1.7287582e+01 </wgt>
<wgt id='58'> +1.8221786e+01 </wgt>
<wgt id='59'> +1.7159840e+01 </wgt>
<wgt id='60'> +1.7118099e+01 </wgt>
<wgt id='61'> +1.7849433e+01 </wgt>
<wgt id='62'> +1.7335158e+01 </wgt>
<wgt id='63'> +1.7637082e+01 </wgt>
<wgt id='64'> +1.7876740e+01 </wgt>
<wgt id='65'> +1.9261515e+01 </wgt>
<wgt id='66'> +1.7113392e+01 </wgt>
<wgt id='67'> +1.7638211e+01 </wgt>
<wgt id='68'> +1.8076557e+01 </wgt>
<wgt id='69'> +1.6504289e+01 </wgt>
<wgt id='70'> +1.7445257e+01 </wgt>
<wgt id='71'> +1.7739969e+01 </wgt>
<wgt id='72'> +1.8141215e+01 </wgt>
<wgt id='73'> +1.7746863e+01 </wgt>
<wgt id='74'> +1.7588898e+01 </wgt>
<wgt id='75'> +1.7705470e+01 </wgt>
<wgt id='76'> +1.7271224e+01 </wgt>
<wgt id='77'> +1.6955906e+01 </wgt>
<wgt id='78'> +1.7932141e+01 </wgt>
<wgt id='79'> +1.6962298e+01 </wgt>
<wgt id='80'> +1.7544683e+01 </wgt>
<wgt id='81'> +1.7493279e+01 </wgt>
<wgt id='82'> +1.8088795e+01 </wgt>
<wgt id='83'> +1.7361198e+01 </wgt>
<wgt id='84'> +1.8258348e+01 </wgt>
<wgt id='85'> +1.8207678e+01 </wgt>
<wgt id='86'> +1.7167702e+01 </wgt>
<wgt id='87'> +1.7467937e+01 </wgt>
<wgt id='88'> +1.7362953e+01 </wgt>
<wgt id='89'> +1.7828977e+01 </wgt>
<wgt id='90'> +1.7699023e+01 </wgt>
<wgt id='91'> +1.8439830e+01 </wgt>
<wgt id='92'> +1.7301612e+01 </wgt>
<wgt id='93'> +1.7214080e+01 </wgt>
<wgt id='94'> +1.7800789e+01 </wgt>
<wgt id='95'> +1.7265279e+01 </wgt>
<wgt id='96'> +1.7927108e+01 </wgt>
<wgt id='97'> +1.7930184e+01 </wgt>
<wgt id='98'> +1.6819496e+01 </wgt>
<wgt id='99'> +1.7508492e+01 </wgt>
<wgt id='100'> +1.8269382e+01 </wgt>
<wgt id='101'> +1.7538406e+01 </wgt>
<wgt id='102'> +1.6553758e+01 </wgt>
<wgt id='103'> +1.8369823e+01 </wgt>
<wgt id='104'> +1.7136892e+01 </wgt>
<wgt id='105'> +1.8397191e+01 </wgt>
<wgt id='106'> +1.7270811e+01 </wgt>
<wgt id='107'> +1.8138203e+01 </wgt>
<wgt id='108'> +1.6824550e+01 </wgt>
<wgt id='109'> +1.7270238e+01 </wgt>
<wgt id='110'> +1.7877374e+01 </wgt>
<wgt id='111'> +1.7389721e+01 </wgt>
<wgt id='112'> +1.7312745e+01 </wgt>
<wgt id='113'> +1.6915448e+01 </wgt>
<wgt id='114'> +1.8159062e+01 </wgt>
<wgt id='115'> +1.7895712e+01 </wgt>
<wgt id='116'> +1.6933532e+01 </wgt>
<wgt id='117'> +1.7831864e+01 </wgt>
<wgt id='118'> +1.7406468e+01 </wgt>
<wgt id='119'> +1.7344129e+01 </wgt>
<wgt id='120'> +1.7697469e+01 </wgt>
<wgt id='121'> +1.7567136e+01 </wgt>
<wgt id='122'> +1.7485782e+01 </wgt>
<wgt id='123'> +1.7423269e+01 </wgt>
<wgt id='124'> +1.7768434e+01 </wgt>
<wgt id='125'> +1.7943768e+01 </wgt>
<wgt id='126'> +1.7815566e+01 </wgt>
<wgt id='127'> +1.7760716e+01 </wgt>
<wgt id='128'> +1.6738051e+01 </wgt>
<wgt id='129'> +1.9024446e+01 </wgt>
<wgt id='130'> +1.7182685e+01 </wgt>
<wgt id='131'> +1.8482738e+01 </wgt>
<wgt id='132'> +1.7243334e+01 </wgt>
<wgt id='133'> +1.7108411e+01 </wgt>
<wgt id='134'> +1.6802469e+01 </wgt>
<wgt id='135'> +1.7932087e+01 </wgt>
<wgt id='136'> +1.6922715e+01 </wgt>
<wgt id='137'> +1.6484122e+01 </wgt>
<wgt id='138'> +1.5647649e+01 </wgt>
<wgt id='139'> +1.7730860e+01 </wgt>
<wgt id='140'> +1.8578081e+01 </wgt>
<wgt id='141'> +1.7282866e+01 </wgt>
<wgt id='142'> +1.8205986e+01 </wgt>
<wgt id='143'> +1.7380316e+01 </wgt>
<wgt id='144'> +1.7955105e+01 </wgt>
<wgt id='145'> +1.7478704e+01 </wgt>
</rwgt>
</event>
<event>
 3      1 +1.7556000e+01 1.25000000e+02 7.54677100e-03 1.23506900e-01
       21 -1    0    0  502  501 +0.0000000000e+00 +0.0000000000e+00 +1.3619810437e+01 1.3619810437e+01 0.0000000000e+00 0.0000e+00 -1.0000e+00
       21 -1    0    0  501  502 -0.0000000000e+00 -0.0000000000e+00 -2.8680648809e+02 2.8680648809e+02 0.0000000000e+00 0.0000e+00 -1.0000e+00
       25  1    1    2    0    0 +0.0000000000e+00 +0.0000000000e+00 -2.7318667765e+02 3.0042629853e+02 1.2500000000e+02 0.0000e+00 0.0000e+00
<mgrwt>
<rscale>  0 0.12500000E+03</rscale>
<asrwt>0</asrwt>
<pdfrwt beam="1">  1       21 0.20953554E-02 0.12500000E+03</pdfrwt>
<pdfrwt beam="2">  1       21 0.44124076E-01 0.12500000E+03</pdfrwt>
<totfact> 0.55420764E+06</totfact>
</mgrwt>
<rwgt>
<wgt id='1'> +1.6811184e+01 </wgt>
<wgt id='2'> +0.0000000e+00 </wgt>
<wgt id='3'> +1.6811184e+01 </wgt>
<wgt id='4'> +1.5685038e+01 </wgt>
<wgt id='5'> +1.6811184e+01 </wgt>
<wgt id='6'> +1.7556000e+01 </wgt>
<wgt id='7'> +0.0000000e+00 </wgt>
<wgt id='8'> +1.7556000e+01 </wgt>
<wgt id='9'> +1.6811184e+01 </wgt>
<wgt id='10'> +1.7556000e+01 </wgt>
<wgt id='11'> +1.7865287e+01 </wgt>
<wgt id='12'> +0.0000000e+00 </wgt>
<wgt id='13'> +1.7865287e+01 </wgt>
<wgt id='14'> +1.7556000e+01 </wgt>
<wgt id='15'> +1.7865287e+01 </wgt>
<wgt id='16'> +1.6811184e+01 </wgt>
<wgt id='17'> +0.0000000e+00 </wgt>
<wgt id='18'> +1.6811184e+01 </wgt>
<wgt id='19'> +1.5685038e+01 </wgt>
<wgt id='20'> +1.6811184e+01 </wgt>
<wgt id='21'> +0.0000000e+00 </wgt>
<wgt id='22'> +1.7556000e+01 </wgt>
<wgt id='23'> +1.6811184e+01 </wgt>
<wgt id='24'> +1.7556000e+01 </wgt>
<wgt id='25'> +1.7865287e+01 </wgt>
<wgt id='26'> +0.0000000e+00 </wgt>
<wgt id='27'> +1.7865287e+01 </wgt>
<wgt id='28'> +1.7556000e+01 </wgt>
<wgt id='29'> +1.7865287e+01 </wgt>
<wgt id='30'> +1.6811184e+01 </wgt>
<wgt id='31'> +0.0000000e+00 </wgt>
<wgt id='32'> +1.6811184e+01 </wgt>
<wgt id='33'> +1.5685038e+01 </wgt>
<wgt id='34'> +1.6811184e+01 </wgt>
<wgt id='35'> +1.7556000e+01 </wgt>
<wgt id='36'> +0.0000000e+00 </wgt>
<wgt id='37'> +1.7556000e+01 </wgt>
<wgt id='38'> +1.6811184e+01 </wgt>
<wgt id='39'> +1.7556000e+01 </wgt>
<wgt id='40'> +1.7865287e+01 </wgt>
<wgt id='41'> +0.0000000e+00 </wgt>
<wgt id='42'> +1.7865287e+01 </wgt>
<wgt id='43'> +1.7556000e+01 </wgt>
<wgt id='44'> +1.7865287e+01 </wgt>
<wgt id='45'> +1.7556000e+01 </wgt>
<wgt id='46'> +1.7343390e+01 </wgt>
<wgt id='47'> +1.7630687e+01 </wgt>
<wgt id='48'> +1.7420870e+01 </wgt>
<wgt id='49'> +1.7709271e+01 </wgt>
<wgt id='50'> +1.8583766e+01 </wgt>
<wgt id='51'> +1.7345180e+01 </wgt>
<wgt id='52'> +1.7512039e+01 </wgt>
<wgt id='53'> +1.7667516e+01 </wgt>
<wgt id='54'> +1.7613015e+01 </wgt>
<wgt id='55'> +1.6432586e+01 </wgt>
<wgt id='56'> +1.7036378e+01 </wgt>
<wgt id='57'> +1.7271069e+01 </wgt>
<wgt id='58'> +1.8122121e+01 </wgt>
<wgt id='59'> +1.7309312e+01 </wgt>
<wgt id='60'> +1.7332763e+01 </wgt>
<wgt id='61'> +1.7590690e+01 </wgt>
<wgt id='62'> +1.7392196e+01 </wgt>
<wgt id='63'> +1.7649595e+01 </wgt>
<wgt id='64'> +1.7764413e+01 </wgt>
<wgt id='65'> +1.9185004e+01 </wgt>
<wgt id='66'> +1.7122845e+01 </wgt>
<wgt id='67'> +1.7612811e+01 </wgt>
<wgt id='68'> +1.8175501e+01 </wgt>
<wgt id='69'> +1.6644513e+01 </wgt>
<wgt id='70'> +1.7394335e+01 </wgt>
<wgt id='71'> +1.7696675e+01 </wgt>
<wgt id='72'> +1.7878753e+01 </wgt>
<wgt id='73'> +1.7727681e+01 </wgt>
<wgt id='74'> +1.7739336e+01 </wgt>
<wgt id='75'> +1.7759438e+01 </wgt>
<wgt id='76'> +1.7210009e+01 </wgt>
<wgt id='77'> +1.7077536e+01 </wgt>
<wgt id='78'> +1.7785227e+01 </wgt>
<wgt id='79'> +1.7083846e+01 </wgt>
<wgt id='80'> +1.7474420e+01 </wgt>
<wgt id='81'> +1.7416646e+01 </wgt>
<wgt id='82'> +1.8008455e+01 </wgt>
<wgt id='83'> +1.7401706e+01 </wgt>
<wgt id='84'> +1.8258965e+01 </wgt>
<wgt id='85'> +1.8239334e+01 </wgt>
<wgt id='86'> +1.7252038e+01 </wgt>
<wgt id='87'> +1.7535782e+01 </wgt>
<wgt id='88'> +1.7357434e+01 </wgt>
<wgt id='89'> +1.7958618e+01 </wgt>
<wgt id='90'> +1.7776222e+01 </wgt>
<wgt id='91'> +1.8388018e+01 </wgt>
<wgt id='92'> +1.7003382e+01 </wgt>
<wgt id='93'> +1.7333878e+01 </wgt>
<wgt id='94'> +1.7709964e+01 </wgt>
<wgt id='95'> +1.7184435e+01 </wgt>
<wgt id='96'> +1.8096061e+01 </wgt>
<wgt id='97'> +1.7845458e+01 </wgt>
<wgt id='98'> +1.6841634e+01 </wgt>
<wgt id='99'> +1.7517992e+01 </wgt>
<wgt id='100'> +1.8051776e+01 </wgt>
<wgt id='101'> +1.7798719e+01 </wgt>
<wgt id='102'> +1.6792873e+01 </wgt>
<wgt id='103'> +1.8494017e+01 </wgt>
<wgt id='104'> +1.7171329e+01 </wgt>
<wgt id='105'> +1.8265083e+01 </wgt>
<wgt id='106'> +1.7027511e+01 </wgt>
<wgt id='107'> +1.7895686e+01 </wgt>
<wgt id='108'> +1.6577541e+01 </wgt>
<wgt id='109'> +1.7140816e+01 </wgt>
<wgt id='110'> +1.7862255e+01 </wgt>
<wgt id='111'> +1.7289943e+01 </wgt>
<wgt id='112'> +1.7174811e+01 </wgt>
<wgt id='113'> +1.6825727e+01 </wgt>
<wgt id='114'> +1.7903121e+01 </wgt>
<wgt id='115'> +1.7614527e+01 </wgt>
<wgt id='116'> +1.7135704e+01 </wgt>
<wgt id='117'> +1.7741004e+01 </wgt>
<wgt id='118'> +1.7613579e+01 </wgt>
<wgt id='119'> +1.7271879e+01 </wgt>
<wgt id='120'> +1.7525788e+01 </wgt>
<wgt id='121'> +1.7513203e+01 </wgt>
<wgt id='122'> +1.7460868e+01 </wgt>
<wgt id='123'> +1.7469499e+01 </wgt>
<wgt id='124'> +1.7970096e+01 </wgt>
<wgt id='125'> +1.8128119e+01 </wgt>
<wgt id='126'> +1.7898545e+01 </wgt>
<wgt id='127'> +1.7853622e+01 </wgt>
<wgt id='128'> +1.6588231e+01 </wgt>
<wgt id='129'> +1.9047777e+01 </wgt>
<wgt id='130'> +1.7178619e+01 </wgt>
<wgt id='131'> +1.8465728e+01 </wgt>
<wgt id='132'> +1.7388919e+01 </wgt>
<wgt id='133'> +1.7273678e+01 </wgt>
<wgt id='134'> +1.6831161e+01 </wgt>
<wgt id='135'> +1.7947992e+01 </wgt>
<wgt id='136'> +1.7041055e+01 </wgt>
<wgt id='137'> +1.6532233e+01 </wgt>
<wgt id='138'> +1.5830876e+01 </wgt>
<wgt id='139'> +1.7842395e+01 </wgt>
<wgt id='140'> +1.8481499e+01 </wgt>
<wgt id='141'> +1.7292230e+01 </wgt>
<wgt id='142'> +1.8052512e+01 </wgt>
<wgt id='143'> +1.7455064e+01 </wgt>
<wgt id='144'> +1.7845640e+01 </wgt>
<wgt id='145'> +1.7468946e+01 </wgt>
</rwgt>
</event>
<event>
 3      1 +1.7556000e+01 1.25000000e+02 7.54677100e-03 1.23506900e-01
       21 -1    0    0  502  501 +0.0000000000e+00 +0.0000000000e+00 +3.2406989127e+02 3.2406989127e+02 0.0000000000e+00 0.0000e+00 -1.0000e+00
       21 -1    0    0  501  502 -0.0000000000e+00 -0.0000000000e+00 -1.2053727005e+01 1.2053727005e+01 0.0000000000e+00 0.0000e+00 -1.0000e+00
       25  1    1    2    0    0 +0.0000000000e+00 +0.0000000000e+00 +3.1201616427e+02 3.3612361828e+02 1.2500000000e+02 0.0000e+00 0.0000e+00
<mgrwt>
<rscale>  0 0.12500000E+03</rscale>
<asrwt>0</asrwt>
<pdfrwt beam="1">  1       21 0.49856900E-01 0.12500000E+03</pdfrwt>
<pdfrwt beam="2">  1       21 0.18544198E-02 0.12500000E+03</pdfrwt>
<totfact> 0.52579864E+06</totfact>
</mgrwt>
<rwgt>
<wgt id='1'> +1.6838219e+01 </wgt>
<wgt id='2'> +0.0000000e+00 </wgt>
<wgt id='3'> +1.6838219e+01 </wgt>
<wgt id='4'> +1.5739235e+01 </wgt>
<wgt id='5'> +1.6838219e+01 </wgt>
<wgt id='6'> +1.7556000e+01 </wgt>
<wgt id='7'> +0.0000000e+00 </wgt>
<wgt id='8'> +1.7556000e+01 </wgt>
<wgt id='9'> +1.6838219e+01 </wgt>
<wgt id='10'> +1.7556000e+01 </wgt>
<wgt id='11'> +1.7839860e+01 </wgt>
<wgt id='12'> +0.0000000e+00 </wgt>
<wgt id='13'> +1.7839860e+01 </wgt>
<wgt id='14'> +1.7556000e+01 </wgt>
<wgt id='15'> +1.7839860e+01 </wgt>
<wgt id='16'> +1.6838219e+01 </wgt>
<wgt id='17'> +0.0000000e+00 </wgt>
<wgt id='18'> +1.6838219e+01 </wgt>
<wgt id='19'> +1.5739235e+01 </wgt>
<wgt id='20'> +1.6838219e+01 </wgt>
<wgt id='21'> +0.0000000e+00 </wgt>
<wgt id='22'> +1.7556000e+01 </wgt>
<wgt id='23'> +1.6838219e+01 </wgt>
<wgt id='24'> +1.7556000e+01 </wgt>
<wgt id='25'> +1.7839860e+01 </wgt>
<wgt id='26'> +0.0000000e+00 </wgt>
<wgt id='27'> +1.7839860e+01 </wgt>
<wgt id='28'> +1.7556000e+01 </wgt>
<wgt id='29'> +1.7839860e+01 </wgt>
<wgt id='30'> +1.6838219e+01 </wgt>
<wgt id='31'> +0.0000000e+00 </wgt>
<wgt id='32'> +1.6838219e+01 </wgt>
<wgt id='33'> +1.5739235e+01 </wgt>
<wgt id='34'> +1.6838219e+01 </wgt>
<wgt id='35'> +1.7556000e+01 </wgt>
<wgt id='36'> +0.0000000e+00 </wgt>
<wgt id='37'> +1.7556000e+01 </wgt>
<wgt id='38'> +1.6838219e+01 </wgt>
<wgt id='39'> +1.7556000e+01 </wgt>
<wgt id='40'> +1.7839860e+01 </wgt>
<wgt id='41'> +0.0000000e+00 </wgt>
<wgt id='42'> +1.7839860e+01 </wgt>
<wgt id='43'> +1.7556000e+01 </wgt>
<wgt id='44'> +1.7839860e+01 </wgt>
<wgt id='45'> +1.7556000e+01 </wgt>
<wgt id='46'> +1.7415088e+01 </wgt>
<wgt id='47'> +1.7643735e+01 </wgt>
<wgt id='48'> +1.7466046e+01 </wgt>
<wgt id='49'> +1.7721025e+01 </wgt>
<wgt id='50'> +1.8703062e+01 </wgt>
<wgt id='51'> +1.7353168e+01 </wgt>
<wgt id='52'> +1.7545117e+01 </wgt>
<wgt id='53'> +1.7590125e+01 </wgt>
<wgt id='54'> +1.7609032e+01 </wgt>
<wgt id='55'> +1.6452731e+01 </wgt>
<wgt id='56'> +1.6967598e+01 </wgt>
<wgt id='57'> +1.7280923e+01 </wgt>
<wgt id='58'> +1.8065190e+01 </wgt>
<wgt id='59'> +1.7403879e+01 </wgt>
<wgt id='60'> +1.7449797e+01 </wgt>
<wgt id='61'> +1.7431452e+01 </wgt>
<wgt id='62'> +1.7415964e+01 </wgt>
<wgt id='63'> +1.7653710e+01 </wgt>
<wgt id='64'> +1.7705580e+01 </wgt>
<wgt id='65'> +1.9128526e+01 </wgt>
<wgt id='66'> +1.7127988e+01 </wgt>
<wgt id='67'> +1.7598554e+01 </wgt>
<wgt id='68'> +1.8228035e+01 </wgt>
<wgt id='69'> +1.6715449e+01 </wgt>
<wgt id='70'> +1.7371368e+01 </wgt>
<wgt id='71'> +1.7675961e+01 </wgt>
<wgt id='72'> +1.7765184e+01 </wgt>
<wgt id='73'> +1.7712112e+01 </wgt>
<wgt id='74'> +1.7817115e+01 </wgt>
<wgt id='75'> +1.7784237e+01 </wgt>
<wgt id='76'> +1.7194193e+01 </wgt>
<wgt id='77'> +1.7142596e+01 </wgt>
<wgt id='78'> +1.7698938e+01 </wgt>
<wgt id='79'> +1.7152374e+01 </wgt>
<wgt id='80'> +1.7435792e+01 </wgt>
<wgt id='81'> +1.7380184e+01 </wgt>
<wgt id='82'> +1.7950469e+01 </wgt>
<wgt id='83'> +1.7414733e+01 </wgt>
<wgt id='84'> +1.8245186e+01 </wgt>
<wgt id='85'> +1.8235248e+01 </wgt>
<wgt id='86'> +1.7293338e+01 </wgt>
<wgt id='87'> +1.7569741e+01 </wgt>
<wgt id='88'> +1.7346504e+01 </wgt>
<wgt id='89'> +1.8015755e+01 </wgt>
<wgt id='90'> +1.7819287e+01 </wgt>
<wgt id='91'> +1.8345690e+01 </wgt>
<wgt id='92'> +1.6880980e+01 </wgt>
<wgt id='93'> +1.7393208e+01 </wgt>
<wgt id='94'> +1.7662614e+01 </wgt>
<wgt id='95'> +1.7165228e+01 </wgt>
<wgt id='96'> +1.8163368e+01 </wgt>
<wgt id='97'> +1.7797652e+01 </wgt>
<wgt id='98'> +1.6866343e+01 </wgt>
<wgt id='99'> +1.7513256e+01 </wgt>
<wgt id='100'> +1.7928417e+01 </wgt>
<wgt id='101'> +1.7937889e+01 </wgt>
<wgt id='102'> +1.6926662e+01 </wgt>
<wgt id='103'> +1.8544623e+01 </wgt>
<wgt id='104'> +1.7188238e+01 </wgt>
<wgt id='105'> +1.8203044e+01 </wgt>
<wgt id='106'> +1.6919098e+01 </wgt>
<wgt id='107'> +1.7770946e+01 </wgt>
<wgt id='108'> +1.6462225e+01 </wgt>
<wgt id='109'> +1.7085124e+01 </wgt>
<wgt id='110'> +1.7851703e+01 </wgt>
<wgt id='111'> +1.7247503e+01 </wgt>
<wgt id='112'> +1.7104984e+01 </wgt>
<wgt id='113'> +1.6791645e+01 </wgt>
<wgt id='114'> +1.7778920e+01 </wgt>
<wgt id='115'> +1.7461616e+01 </wgt>
<wgt id='116'> +1.7239720e+01 </wgt>
<wgt id='117'> +1.7686926e+01 </wgt>
<wgt id='118'> +1.7718042e+01 </wgt>
<wgt id='119'> +1.7246654e+01 </wgt>
<wgt id='120'> +1.7429527e+01 </wgt>
<wgt id='121'> +1.7495239e+01 </wgt>
<wgt id='122'> +1.7452571e+01 </wgt>
<wgt id='123'> +1.7486066e+01 </wgt>
<wgt id='124'> +1.8075609e+01 </wgt>
<wgt id='125'> +1.8227183e+01 </wgt>
<wgt id='126'> +1.7927546e+01 </wgt>
<wgt id='127'> +1.7893926e+01 </wgt>
<wgt id='128'> +1.6509944e+01 </wgt>
<wgt id='129'> +1.9051906e+01 </wgt>
<wgt id='130'> +1.7164479e+01 </wgt>
<wgt id='131'> +1.8443393e+01 </wgt>
<wgt id='132'> +1.7487643e+01 </wgt>
<wgt id='133'> +1.7363459e+01 </wgt>
<wgt id='134'> +1.6860653e+01 </wgt>
<wgt id='135'> +1.7950401e+01 </wgt>
<wgt id='136'> +1.7132405e+01 </wgt>
<wgt id='137'> +1.6560647e+01 </wgt>
<wgt id='138'> +1.5926862e+01 </wgt>
<wgt id='139'> +1.7897301e+01 </wgt>
<wgt id='140'> +1.8421199e+01 </wgt>
<wgt id='141'> +1.7300584e+01 </wgt>
<wgt id='142'> +1.7954306e+01 </wgt>
<wgt id='143'> +1.7504163e+01 </wgt>
<wgt id='144'> +1.7789909e+01 </wgt>
<wgt id='145'> +1.7464011e+01 </wgt>
</rwgt>
</event>
<event>
 3      1 +1.7556000e+01 1.25000000e+02 7.54677100e-03 1.23506900e-01
       21 -1    0    0  502  501 +0.0000000000e+00 +0.0000000000e+00 +1.3703647335e+02 1.3703647335e+02 0.0000000000e+00 0.0000e+00 1.0000e+00
       21 -1    0    0  501  502 -0.0000000000e+00 -0.0000000000e+00 -2.8505184820e+01 2.8505184820e+01 0.0000000000e+00 0.0000e+00 1.0000e+00
       25  1    1    2    0    0 +0.0000000000e+00 +0.0000000000e+00 +1.0853128853e+02 1.6554165817e+02 1.2500000000e+02 0.0000e+00 0.0000e+00
<mgrwt>
<rscale>  0 0.12500000E+03</rscale>
<asrwt>0</asrwt>
<pdfrwt beam="1">  1       21 0.21082534E-01 0.12500000E+03</pdfrwt>
<pdfrwt beam="2">  1       21 0.43854132E-02 0.12500000E+03</pdfrwt>
<totfact> 0.68848626E+06</totfact>
</mgrwt>
<rwgt>
<wgt id='1'> +1.6689414e+01 </wgt>
<wgt id='2'> +0.0000000e+00 </wgt>
<wgt id='3'> +1.6689414e+01 </wgt>
<wgt id='4'> +1.5440693e+01 </wgt>
<wgt id='5'> +1.6689414e+01 </wgt>
<wgt id='6'> +1.7556000e+01 </wgt>
<wgt id='7'> +0.0000000e+00 </wgt>
<wgt id='8'> +1.7556000e+01 </wgt>
<wgt id='9'> +1.6689414e+01 </wgt>
<wgt id='10'> +1.7556000e+01 </wgt>
<wgt id='11'> +1.7979773e+01 </wgt>
<wgt id='12'> +0.0000000e+00 </wgt>
<wgt id='13'> +1.7979773e+01 </wgt>
<wgt id='14'> +1.7556000e+01 </wgt>
<wgt id='15'> +1.7979773e+01 </wgt>
<wgt id='16'> +1.6689414e+01 </wgt>
<wgt id='17'> +0.0000000e+00 </wgt>
<wgt id='18'> +1.6689414e+01 </wgt>
<wgt id='19'> +1.5440693e+01 </wgt>
<wgt id='20'> +1.6689414e+01 </wgt>
<wgt id='21'> +0.0000000e+00 </wgt>
<wgt id='22'> +1.7556000e+01 </wgt>
<wgt id='23'> +1.6689414e+01 </wgt>
<wgt id='24'> +1.7556000e+01 </wgt>
<wgt id='25'> +1.7979773e+01 </wgt>
<wgt id='26'> +0.0000000e+00 </wgt>
<wgt id='27'> +1.7979773e+01 </wgt>
<wgt id='28'> +1.7556000e+01 </wgt>
<wgt id='29'> +1.7979773e+01 </wgt>
<wgt id='30'> +1.6689414e+01 </wgt>
<wgt id='31'> +0.0000000e+00 </wgt>
<wgt id='32'> +1.6689414e+01 </wgt>
<wgt id='33'> +1.5440693e+01 </wgt>
<wgt id='34'> +1.6689414e+01 </wgt>
<wgt id='35'> +1.7556000e+01 </wgt>
<wgt id='36'> +0.0000000e+00 </wgt>
<wgt id='37'> +1.7556000e+01 </wgt>
<wgt id='38'> +1.6689414e+01 </wgt>
<wgt id='39'> +1.7556000e+01 </wgt>
<wgt id='40'> +1.7979773e+01 </wgt>
<wgt id='41'> +0.0000000e+00 </wgt>
<wgt id='42'> +1.7979773e+01 </wgt>
<wgt id='43'> +1.7556000e+01 </wgt>
<wgt id='44'> +1.7979773e+01 </wgt>
<wgt id='45'> +1.7556000e+01 </wgt>
<wgt id='46'> +1.7050994e+01 </wgt>
<wgt id='47'> +1.7531650e+01 </wgt>
<wgt id='48'> +1.7206545e+01 </wgt>
<wgt id='49'> +1.7606742e+01 </wgt>
<wgt id='50'> +1.8030175e+01 </wgt>
<wgt id='51'> +1.7291991e+01 </wgt>
<wgt id='52'> +1.7405540e+01 </wgt>
<wgt id='53'> +1.7950592e+01 </wgt>
<wgt id='54'> +1.7638767e+01 </wgt>
<wgt id='55'> +1.6551633e+01 </wgt>
<wgt id='56'> +1.7294070e+01 </wgt>
<wgt id='57'> +1.7354343e+01 </wgt>
<wgt id='58'> +1.8316002e+01 </wgt>
<wgt id='59'> +1.7048712e+01 </wgt>
<wgt id='60'> +1.6903084e+01 </wgt>
<wgt id='61'> +1.8056421e+01 </wgt>
<wgt id='62'> +1.7258199e+01 </wgt>
<wgt id='63'> +1.7615521e+01 </wgt>
<wgt id='64'> +1.7984254e+01 </wgt>
<wgt id='65'> +1.9306182e+01 </wgt>
<wgt id='66'> +1.7105024e+01 </wgt>
<wgt id='67'> +1.7666430e+01 </wgt>
<wgt id='68'> +1.7976895e+01 </wgt>
<wgt id='69'> +1.6347902e+01 </wgt>
<wgt id='70'> +1.7508785e+01 </wgt>
<wgt id='71'> +1.7801119e+01 </wgt>
<wgt id='72'> +1.8485931e+01 </wgt>
<wgt id='73'> +1.7751763e+01 </wgt>
<wgt id='74'> +1.7426164e+01 </wgt>
<wgt id='75'> +1.7636177e+01 </wgt>
<wgt id='76'> +1.7383285e+01 </wgt>
<wgt id='77'> +1.6831878e+01 </wgt>
<wgt id='78'> +1.8060886e+01 </wgt>
<wgt id='79'> +1.6843978e+01 </wgt>
<wgt id='80'> +1.7619111e+01 </wgt>
<wgt id='81'> +1.7585870e+01 </wgt>
<wgt id='82'> +1.8133113e+01 </wgt>
<wgt id='83'> +1.7298858e+01 </wgt>
<wgt id='84'> +1.8228194e+01 </wgt>
<wgt id='85'> +1.8117298e+01 </wgt>
<wgt id='86'> +1.7070066e+01 </wgt>
<wgt id='87'> +1.7392127e+01 </wgt>
<wgt id='88'> +1.7352580e+01 </wgt>
<wgt id='89'> +1.7665014e+01 </wgt>
<wgt id='90'> +1.7628270e+01 </wgt>
<wgt id='91'> +1.8459583e+01 </wgt>
<wgt id='92'> +1.7723352e+01 </wgt>
<wgt id='93'> +1.7075731e+01 </wgt>
<wgt id='94'> +1.7903588e+01 </wgt>
<wgt id='95'> +1.7409242e+01 </wgt>
<wgt id='96'> +1.7697022e+01 </wgt>
<wgt id='97'> +1.8014305e+01 </wgt>
<wgt id='98'> +1.6831608e+01 </wgt>
<wgt id='99'> +1.7470297e+01 </wgt>
<wgt id='100'> +1.8478436e+01 </wgt>
<wgt id='101'> +1.7273748e+01 </wgt>
<wgt id='102'> +1.6322614e+01 </wgt>
<wgt id='103'> +1.8205230e+01 </wgt>
<wgt id='104'> +1.7097681e+01 </wgt>
<wgt id='105'> +1.8559737e+01 </wgt>
<wgt id='106'> +1.7575925e+01 </wgt>
<wgt id='107'> +1.8399264e+01 </wgt>
<wgt id='108'> +1.7119322e+01 </wgt>
<wgt id='109'> +1.7431979e+01 </wgt>
<wgt id='110'> +1.7887375e+01 </wgt>
<wgt id='111'> +1.7521057e+01 </wgt>
<wgt id='112'> +1.7459466e+01 </wgt>
<wgt id='113'> +1.7036431e+01 </wgt>
<wgt id='114'> +1.8441163e+01 </wgt>
<wgt id='115'> +1.8159815e+01 </wgt>
<wgt id='116'> +1.6713003e+01 </wgt>
<wgt id='117'> +1.7904829e+01 </wgt>
<wgt id='118'> +1.7176285e+01 </wgt>
<wgt id='119'> +1.7449819e+01 </wgt>
<wgt id='120'> +1.7836236e+01 </wgt>
<wgt id='121'> +1.7648158e+01 </wgt>
<wgt id='122'> +1.7521971e+01 </wgt>
<wgt id='123'> +1.7352721e+01 </wgt>
<wgt id='124'> +1.7559437e+01 </wgt>
<wgt id='125'> +1.7755764e+01 </wgt>
<wgt id='126'> +1.7675020e+01 </wgt>
<wgt id='127'> +1.7641471e+01 </wgt>
<wgt id='128'> +1.6892488e+01 </wgt>
<wgt id='129'> +1.8987812e+01 </wgt>
<wgt id='130'> +1.7160859e+01 </wgt>
<wgt id='131'> +1.8470460e+01 </wgt>
<wgt id='132'> +1.7156632e+01 </wgt>
<wgt id='133'> +1.6940353e+01 </wgt>
<wgt id='134'> +1.6812346e+01 </wgt>
<wgt id='135'> +1.7901430e+01 </wgt>
<wgt id='136'> +1.6872871e+01 </wgt>
<wgt id='137'> +1.6440061e+01 </wgt>
<wgt id='138'> +1.5447590e+01 </wgt>
<wgt id='139'> +1.7602535e+01 </wgt>
<wgt id='140'> +1.8654295e+01 </wgt>
<wgt id='141'> +1.7281974e+01 </wgt>
<wgt id='142'> +1.8323594e+01 </wgt>
<wgt id='143'> +1.7335066e+01 </wgt>
<wgt id='144'> +1.8082640e+01 </wgt>
<wgt id='145'> +1.7496168e+01 </wgt>
</rwgt>
</event>
<event>
 3      1 +1.7556000e+01 1.25000000e+02 7.54677100e-03 1.23506900e-01
       21 -1    0    0  502  501 +0.0000000000e+00 +0.0000000000e+00 +1.6862865070e+02 1.6862865070e+02 0.0000000000e+00 0.0000e+00 -1.0000e+00
       21 -1    0    0  501  502 -0.0000000000e+00 -0.0000000000e+00 -2.3164806122e+01 2.3164806122e+01 0.0000000000e+00 0.0000e+00 -1.0000e+00
       25  1    1    2    0    0 +0.0000000000e+00 +0.0000000000e+00 +1.4546384457e+02 1.9179345682e+02 1.2500000000e+02 0.0000e+00 0.0000e+00
<mgrwt>
<rscale>  0 0.12500000E+03</rscale>
<asrwt>0</asrwt>
<pdfrwt beam="1">  1       21 0.25942869E-01 0.12500000E+03</pdfrwt>
<pdfrwt beam="2">  1       21 0.35638164E-02 0.12500000E+03</pdfrwt>
<totfact> 0.65823691E+06</totfact>
</mgrwt>
<rwgt>
<wgt id='1'> +1.6713526e+01 </wgt>
<wgt id='2'> +0.0000000e+00 </wgt>
<wgt id='3'> +1.6713526e+01 </wgt>
<wgt id='4'> +1.5489383e+01 </wgt>
<wgt id='5'> +1.6713526e+01 </wgt>
<wgt id='6'> +1.7556000e+01 </wgt>
<wgt id='7'> +0.0000000e+00 </wgt>
<wgt id='8'> +1.7556000e+01 </wgt>
<wgt id='9'> +1.6713526e+01 </wgt>
<wgt id='10'> +1.7556000e+01 </wgt>
<wgt id='11'> +1.7957336e+01 </wgt>
<wgt id='12'> +0.0000000e+00 </wgt>
<wgt id='13'> +1.7957336e+01 </wgt>
<wgt id='14'> +1.7556000e+01 </wgt>
<wgt id='15'> +1.7957336e+01 </wgt>
<wgt id='16'> +1.6713526e+01 </wgt>
<wgt id='17'> +0.0000000e+00 </wgt>
<wgt id='18'> +1.6713526e+01 </wgt>
<wgt id='19'> +1.5489383e+01 </wgt>
<wgt id='20'> +1.6713526e+01 </wgt>
<wgt id='21'> +0.0000000e+00 </wgt>
<wgt id='22'> +1.7556000e+01 </wgt>
<wgt id='23'> +1.6713526e+01 </wgt>
<wgt id='24'> +1.7556000e+01 </wgt>
<wgt id='25'> +1.7957336e+01 </wgt>
<wgt id='26'> +0.0000000e+00 </wgt>
<wgt id='27'> +1.7957336e+01 </wgt>
<wgt id='28'> +1.7556000e+01 </wgt>
<wgt id='29'> +1.7957336e+01 </wgt>
<wgt id='30'> +1.6713526e+01 </wgt>
<wgt id='31'> +0.0000000e+00 </wgt>
<wgt id='32'> +1.6713526e+01 </wgt>
<wgt id='33'> +1.5489383e+01 </wgt>
<wgt id='34'> +1.6713526e+01 </wgt>
<wgt id='35'> +1.7556000e+01 </wgt>
<wgt id='36'> +0.0000000e+00 </wgt>
<wgt id='37'> +1.7556000e+01 </wgt>
<wgt id='38'> +1.6713526e+01 </wgt>
<wgt id='39'> +1.7556000e+01 </wgt>
<wgt id='40'> +1.7957336e+01 </wgt>
<wgt id='41'> +0.0000000e+00 </wgt>
<wgt id='42'> +1.7957336e+01 </wgt>
<wgt id='43'> +1.7556000e+01 </wgt>
<wgt id='44'> +1.7957336e+01 </wgt>
<wgt id='45'> +1.7556000e+01 </wgt>
<wgt id='46'> +1.7110418e+01 </wgt>
<wgt id='47'> +1.7556479e+01 </wgt>
<wgt id='48'> +1.7254015e+01 </wgt>
<wgt id='49'> +1.7634752e+01 </wgt>
<wgt id='50'> +1.8149169e+01 </wgt>
<wgt id='51'> +1.7305166e+01 </wgt>
<wgt id='52'> +1.7421191e+01 </wgt>
<wgt id='53'> +1.7897623e+01 </wgt>
<wgt id='54'> +1.7634177e+01 </wgt>
<wgt id='55'> +1.6503714e+01 </wgt>
<wgt id='56'> +1.7246034e+01 </wgt>
<wgt id='57'> +1.7322025e+01 </wgt>
<wgt id='58'> +1.8280930e+01 </wgt>
<wgt id='59'> +1.7085017e+01 </wgt>
<wgt id='60'> +1.6984801e+01 </wgt>
<wgt id='61'> +1.7985219e+01 </wgt>
<wgt id='62'> +1.7290076e+01 </wgt>
<wgt id='63'> +1.7625359e+01 </wgt>
<wgt id='64'> +1.7945906e+01 </wgt>
<wgt id='65'> +1.9291544e+01 </wgt>
<wgt id='66'> +1.7108122e+01 </wgt>
<wgt id='67'> +1.7655068e+01 </wgt>
<wgt id='68'> +1.8015012e+01 </wgt>
<wgt id='69'> +1.6409679e+01 </wgt>
<wgt id='70'> +1.7483004e+01 </wgt>
<wgt id='71'> +1.7774103e+01 </wgt>
<wgt id='72'> +1.8343097e+01 </wgt>
<wgt id='73'> +1.7751806e+01 </wgt>
<wgt id='74'> +1.7489770e+01 </wgt>
<wgt id='75'> +1.7664540e+01 </wgt>
<wgt id='76'> +1.7333019e+01 </wgt>
<wgt id='77'> +1.6879027e+01 </wgt>
<wgt id='78'> +1.8014721e+01 </wgt>
<wgt id='79'> +1.6888684e+01 </wgt>
<wgt id='80'> +1.7589551e+01 </wgt>
<wgt id='81'> +1.7548598e+01 </wgt>
<wgt id='82'> +1.8121147e+01 </wgt>
<wgt id='83'> +1.7325166e+01 </wgt>
<wgt id='84'> +1.8243009e+01 </wgt>
<wgt id='85'> +1.8159980e+01 </wgt>
<wgt id='86'> +1.7109090e+01 </wgt>
<wgt id='87'> +1.7421945e+01 </wgt>
<wgt id='88'> +1.7358249e+01 </wgt>
<wgt id='89'> +1.7731331e+01 </wgt>
<wgt id='90'> +1.7653537e+01 </wgt>
<wgt id='91'> +1.8455997e+01 </wgt>
<wgt id='92'> +1.7543415e+01 </wgt>
<wgt id='93'> +1.7131055e+01 </wgt>
<wgt id='94'> +1.7861818e+01 </wgt>
<wgt id='95'> +1.7346335e+01 </wgt>
<wgt id='96'> +1.7792093e+01 </wgt>
<wgt id='97'> +1.7981772e+01 </wgt>
<wgt id='98'> +1.6821801e+01 </wgt>
<wgt id='99'> +1.7488852e+01 </wgt>
<wgt id='100'> +1.8399796e+01 </wgt>
<wgt id='101'> +1.7374575e+01 </wgt>
<wgt id='102'> +1.6409355e+01 </wgt>
<wgt id='103'> +1.8272634e+01 </wgt>
<wgt id='104'> +1.7113415e+01 </wgt>
<wgt id='105'> +1.8493595e+01 </wgt>
<wgt id='106'> +1.7451957e+01 </wgt>
<wgt id='107'> +1.8297918e+01 </wgt>
<wgt id='108'> +1.7001489e+01 </wgt>
<wgt id='109'> +1.7367093e+01 </wgt>
<wgt id='110'> +1.7884129e+01 </wgt>
<wgt id='111'> +1.7466817e+01 </wgt>
<wgt id='112'> +1.7403538e+01 </wgt>
<wgt id='113'> +1.6987073e+01 </wgt>
<wgt id='114'> +1.8332729e+01 </wgt>
<wgt id='115'> +1.8064492e+01 </wgt>
<wgt id='116'> +1.6799621e+01 </wgt>
<wgt id='117'> +1.7880409e+01 </wgt>
<wgt id='118'> +1.7266683e+01 </wgt>
<wgt id='119'> +1.7405723e+01 </wgt>
<wgt id='120'> +1.7792294e+01 </wgt>
<wgt id='121'> +1.7614096e+01 </wgt>
<wgt id='122'> +1.7507041e+01 </wgt>
<wgt id='123'> +1.7383038e+01 </wgt>
<wgt id='124'> +1.7639422e+01 </wgt>
<wgt id='125'> +1.7827847e+01 </wgt>
<wgt id='126'> +1.7738253e+01 </wgt>
<wgt id='127'> +1.7690082e+01 </wgt>
<wgt id='128'> +1.6833844e+01 </wgt>
<wgt id='129'> +1.9002393e+01 </wgt>
<wgt id='130'> +1.7172137e+01 </wgt>
<wgt id='131'> +1.8478562e+01 </wgt>
<wgt id='132'> +1.7180411e+01 </wgt>
<wgt id='133'> +1.7004699e+01 </wgt>
<wgt id='134'> +1.6803153e+01 </wgt>
<wgt id='135'> +1.7914673e+01 </wgt>
<wgt id='136'> +1.6882659e+01 </wgt>
<wgt id='137'> +1.6456426e+01 </wgt>
<wgt id='138'> +1.5526360e+01 </wgt>
<wgt id='139'> +1.7653590e+01 </wgt>
<wgt id='140'> +1.8628121e+01 </wgt>
<wgt id='141'> +1.7281491e+01 </wgt>
<wgt id='142'> +1.8283376e+01 </wgt>
<wgt id='143'> +1.7347324e+01 </wgt>
<wgt id='144'> +1.8030782e+01 </wgt>
<wgt id='145'> +1.7487457e+01 </wgt>
</rwgt>
</event>
<event>
 3      1 +1.7556000e+01 1.25000000e+02 7.54677100e-03 1.23506900e-01
       21 -1    0    0  502  501 +0.0000000000e+00 +0.0000000000e+00 +4.0475218995e+01 4.0475218995e+01 0.0000000000e+00 0.0000e+00 -1.0000e+00
       21 -1    0    0  501  502 -0.0000000000e+00 -0.0000000000e+00 -9.6509669298e+01 9.6509669298e+01 0.0000000000e+00 0.0000e+00 -1.0000e+00
       25  1    1    2    0    0 +0.0000000000e+00 +0.0000000000e+00 -5.6034450303e+01 1.3698488829e+02 1.2500000000e+02 0.0000e+00 0.0000e+00
<mgrwt>
<rscale>  0 0.12500000E+03</rscale>
<asrwt>0</asrwt>
<pdfrwt beam="1">  1       21 0.62269568E-02 0.12500000E+03</pdfrwt>
<pdfrwt beam="2">  1       21 0.14847641E-01 0.12500000E+03</pdfrwt>
<totfact> 0.72434712E+06</totfact>
</mgrwt>
<rwgt>
<wgt id='1'> +1.6659638e+01 </wgt>
<wgt id='2'> +0.0000000e+00 </wgt>
<wgt id='3'> +1.6659638e+01 </wgt>
<wgt id='4'> +1.5380834e+01 </wgt>
<wgt id='5'> +1.6659638e+01 </wgt>
<wgt id='6'> +1.7556000e+01 </wgt>
<wgt id='7'> +0.0000000e+00 </wgt>
<wgt id='8'> +1.7556000e+01 </wgt>
<wgt id='9'> +1.6659638e+01 </wgt>
<wgt id='10'> +1.7556000e+01 </wgt>
<wgt id='11'> +1.8007683e+01 </wgt>
<wgt id='12'> +0.0000000e+00 </wgt>
<wgt id='13'> +1.8007683e+01 </wgt>
<wgt id='14'> +1.7556000e+01 </wgt>
<wgt id='15'> +1.8007683e+01 </wgt>
<wgt id='16'> +1.6659638e+01 </wgt>
<wgt id='17'> +0.0000000e+00 </wgt>
<wgt id='18'> +1.6659638e+01 </wgt>
<wgt id='19'> +1.5380834e+01 </wgt>
<wgt id='20'> +1.6659638e+01 </wgt>
<wgt id='21'> +0.0000000e+00 </wgt>
<wgt id='22'> +1.7556000e+01 </wgt>
<wgt id='23'> +1.6659638e+01 </wgt>
<wgt id='24'> +1.7556000e+01 </wgt>
<wgt id='25'> +1.8007683e+01 </wgt>
<wgt id='26'> +0.0000000e+00 </wgt>
<wgt id='27'> +1.8007683e+01 </wgt>
<wgt id='28'> +1.7556000e+01 </wgt>
<wgt id='29'> +1.8007683e+01 </wgt>
<wgt id='30'> +1.6659638e+01 </wgt>
<wgt id='31'> +0.0000000e+00 </wgt>
<wgt id='32'> +1.6659638e+01 </wgt>
<wgt id='33'> +1.5380834e+01 </wgt>
<wgt id='34'> +1.6659638e+01 </wgt>
<wgt id='35'> +1.7556000e+01 </wgt>
<wgt id='36'> +0.0000000e+00 </wgt>
<wgt id='37'> +1.7556000e+01 </wgt>
<wgt id='38'> +1.6659638e+01 </wgt>
<wgt id='39'> +1.7556000e+01 </wgt>
<wgt id='40'> +1.8007683e+01 </wgt>
<wgt id='41'> +0.0000000e+00 </wgt>
<wgt id='42'> +1.8007683e+01 </wgt>
<wgt id='43'> +1.7556000e+01 </wgt>
<wgt id='44'> +1.8007683e+01 </wgt>
<wgt id='45'> +1.7556000e+01 </wgt>
<wgt id='46'> +1.6986143e+01 </wgt>
<wgt id='47'> +1.7500911e+01 </wgt>
<wgt id='48'> +1.7152201e+01 </wgt>
<wgt id='49'> +1.7572792e+01 </wgt>
<wgt id='50'> +1.7892200e+01 </wgt>
<wgt id='51'> +1.7277253e+01 </wgt>
<wgt id='52'> +1.7395631e+01 </wgt>
<wgt id='53'> +1.8004052e+01 </wgt>
<wgt id='54'> +1.7641376e+01 </wgt>
<wgt id='55'> +1.6618974e+01 </wgt>
<wgt id='56'> +1.7345906e+01 </wgt>
<wgt id='57'> +1.7398459e+01 </wgt>
<wgt id='58'> +1.8353835e+01 </wgt>
<wgt id='59'> +1.7020253e+01 </wgt>
<wgt id='60'> +1.6820602e+01 </wgt>
<wgt id='61'> +1.8123874e+01 </wgt>
<wgt id='62'> +1.7221456e+01 </wgt>
<wgt id='63'> +1.7603135e+01 </wgt>
<wgt id='64'> +1.8020601e+01 </wgt>
<wgt id='65'> +1.9311905e+01 </wgt>
<wgt id='66'> +1.7102526e+01 </wgt>
<wgt id='67'> +1.7679840e+01 </wgt>
<wgt id='68'> +1.7934789e+01 </wgt>
<wgt id='69'> +1.6278124e+01 </wgt>
<wgt id='70'> +1.7538984e+01 </wgt>
<wgt id='71'> +1.7836228e+01 </wgt>
<wgt id='72'> +1.8655614e+01 </wgt>
<wgt id='73'> +1.7750646e+01 </wgt>
<wgt id='74'> +1.7355800e+01 </wgt>
<wgt id='75'> +1.7602343e+01 </wgt>
<wgt id='76'> +1.7448563e+01 </wgt>
<wgt id='77'> +1.6783933e+01 </wgt>
<wgt id='78'> +1.8105487e+01 </wgt>
<wgt id='79'> +1.6798726e+01 </wgt>
<wgt id='80'> +1.7653526e+01 </wgt>
<wgt id='81'> +1.7629339e+01 </wgt>
<wgt id='82'> +1.8139154e+01 </wgt>
<wgt id='83'> +1.7266039e+01 </wgt>
<wgt id='84'> +1.8205114e+01 </wgt>
<wgt id='85'> +1.8059249e+01 </wgt>
<wgt id='86'> +1.7025813e+01 </wgt>
<wgt id='87'> +1.7359568e+01 </wgt>
<wgt id='88'> +1.7343243e+01 </wgt>
<wgt id='89'> +1.7590189e+01 </wgt>
<wgt id='90'> +1.7604509e+01 </wgt>
<wgt id='91'> +1.8457220e+01 </wgt>
<wgt id='92'> +1.7948332e+01 </wgt>
<wgt id='93'> +1.7014024e+01 </wgt>
<wgt id='94'> +1.7953898e+01 </wgt>
<wgt id='95'> +1.7487009e+01 </wgt>
<wgt id='96'> +1.7584590e+01 </wgt>
<wgt id='97'> +1.8049740e+01 </wgt>
<wgt id='98'> +1.6849516e+01 </wgt>
<wgt id='99'> +1.7446683e+01 </wgt>
<wgt id='100'> +1.8563031e+01 </wgt>
<wgt id='101'> +1.7166361e+01 </wgt>
<wgt id='102'> +1.6232852e+01 </wgt>
<wgt id='103'> +1.8126341e+01 </wgt>
<wgt id='104'> +1.7078804e+01 </wgt>
<wgt id='105'> +1.8635333e+01 </wgt>
<wgt id='106'> +1.7720258e+01 </wgt>
<wgt id='107'> +1.8510103e+01 </wgt>
<wgt id='108'> +1.7254382e+01 </wgt>
<wgt id='109'> +1.7506075e+01 </wgt>
<wgt id='110'> +1.7891322e+01 </wgt>
<wgt id='111'> +1.7584191e+01 </wgt>
<wgt id='112'> +1.7519421e+01 </wgt>
<wgt id='113'> +1.7094374e+01 </wgt>
<wgt id='114'> +1.8553173e+01 </wgt>
<wgt id='115'> +1.8246921e+01 </wgt>
<wgt id='116'> +1.6616722e+01 </wgt>
<wgt id='117'> +1.7923297e+01 </wgt>
<wgt id='118'> +1.7076095e+01 </wgt>
<wgt id='119'> +1.7502607e+01 </wgt>
<wgt id='120'> +1.7865878e+01 </wgt>
<wgt id='121'> +1.7689668e+01 </wgt>
<wgt id='122'> +1.7539068e+01 </wgt>
<wgt id='123'> +1.7314297e+01 </wgt>
<wgt id='124'> +1.7472923e+01 </wgt>
<wgt id='125'> +1.7677033e+01 </wgt>
<wgt id='126'> +1.7585397e+01 </wgt>
<wgt id='127'> +1.7585254e+01 </wgt>
<wgt id='128'> +1.6954349e+01 </wgt>
<wgt id='129'> +1.8969945e+01 </wgt>
<wgt id='130'> +1.7143680e+01 </wgt>
<wgt id='131'> +1.8456477e+01 </wgt>
<wgt id='132'> +1.7146396e+01 </wgt>
<wgt id='133'> +1.6871710e+01 </wgt>
<wgt id='134'> +1.6832007e+01 </wgt>
<wgt id='135'> +1.7885393e+01 </wgt>
<wgt id='136'> +1.6875815e+01 </wgt>
<wgt id='137'> +1.6423551e+01 </wgt>
<wgt id='138'> +1.5360284e+01 </wgt>
<wgt id='139'> +1.7545579e+01 </wgt>
<wgt id='140'> +1.8676607e+01 </wgt>
<wgt id='141'> +1.7282783e+01 </wgt>
<wgt id='142'> +1.8361179e+01 </wgt>
<wgt id='143'> +1.7331611e+01 </wgt>
<wgt id='144'> +1.8145352e+01 </wgt>
<wgt id='145'> +1.7508207e+01 </wgt>
</rwgt>
</event>
<event>
 3      1 +1.7556000e+01 1.25000000e+02 7.54677100e-03 1.23506900e-01
       21 -1    0    0  502  501 +0.0000000000e+00 +0.0000000000e+00 +5.4700059957e+02 5.4700059957e+02 0.0000000000e+00 0.0000e+00 -1.0000e+00
       21 -1    0    0  501  502 -0.0000000000e+00 -0.0000000000e+00 -7.1412170353e+00 7.1412170353e+00 0.0000000000e+00 0.0000e+00 -1.0000e+00
       25  1    1    2    0    0 +0.0000000000e+00 +0.0000000000e+00 +5.3985938254e+02 5.5414181661e+02 1.2500000000e+02 0.0000e+00 0.0000e+00
<mgrwt>
<rscale>  0 0.12500000E+03</rscale>
<asrwt>0</asrwt>
<pdfrwt beam="1">  1       21 0.84153906E-01 0.12500000E+03</pdfrwt>
<pdfrwt beam="2">  1       21 0.10986492E-02 0.12500000E+03</pdfrwt>
<totfact> 0.39252200E+06</totfact>
</mgrwt>
<rwgt>
<wgt id='1'> +1.7008903e+01 </wgt>
<wgt id='2'> +0.0000000e+00 </wgt>
<wgt id='3'> +1.7008903e+01 </wgt>
<wgt id='4'> +1.6078770e+01 </wgt>
<wgt id='5'> +1.7008903e+01 </wgt>
<wgt id='6'> +1.7556000e+01 </wgt>
<wgt id='7'> +0.0000000e+00 </wgt>
<wgt id='8'> +1.7556000e+01 </wgt>
<wgt id='9'> +1.7008903e+01 </wgt>
<wgt id='10'> +1.7556000e+01 </wgt>
<wgt id='11'> +1.7677689e+01 </wgt>
<wgt id='12'> +0.0000000e+00 </wgt>
<wgt id='13'> +1.7677689e+01 </wgt>
<wgt id='14'> +1.7556000e+01 </wgt>
<wgt id='15'> +1.7677689e+01 </wgt>
<wgt id='16'> +1.7008903e+01 </wgt>
<wgt id='17'> +0.0000000e+00 </wgt>
<wgt id='18'> +1.7008903e+01 </wgt>
<wgt id='19'> +1.6078770e+01 </wgt>
<wgt id='20'> +1.7008903e+01 </wgt>
<wgt id='21'> +0.0000000e+00 </wgt>
<wgt id='22'> +1.7556000e+01 </wgt>
<wgt id='23'> +1.7008903e+01 </wgt>
<wgt id='24'> +1.7556000e+01 </wgt>
<wgt id='25'> +1.7677689e+01 </wgt>
<wgt id='26'> +0.0000000e+00 </wgt>
<wgt id='27'> +1.7677689e+01 </wgt>
<wgt id='28'> +1.7556000e+01 </wgt>
<wgt id='29'> +1.7677689e+01 </wgt>
<wgt id='30'> +1.7008903e+01 </wgt>
<wgt id='31'> +0.0000000e+00 </wgt>
<wgt id='32'> +1.7008903e+01 </wgt>
<wgt id='33'> +1.6078770e+01 </wgt>
<wgt id='34'> +1.7008903e+01 </wgt>
<wgt id='35'> +1.7556000e+01 </wgt>
<wgt id='36'> +0.0000000e+00 </wgt>
<wgt id='37'> +1.7556000e+01 </wgt>
<wgt id='38'> +1.7008903e+01 </wgt>
<wgt id='39'> +1.7556000e+01 </wgt>
<wgt id='40'> +1.7677689e+01 </wgt>
<wgt id='41'> +0.0000000e+00 </wgt>
<wgt id='42'> +1.7677689e+01 </wgt>
<wgt id='43'> +1.7556000e+01 </wgt>
<wgt id='44'> +1.7677689e+01 </wgt>
<wgt id='45'> +1.7556000e+01 </wgt>
<wgt id='46'> +1.7786263e+01 </wgt>
<wgt id='47'> +1.7649746e+01 </wgt>
<wgt id='48'> +1.7654147e+01 </wgt>
<wgt id='49'> +1.7667575e+01 </wgt>
<wgt id='50'> +1.9251278e+01 </wgt>
<wgt id='51'> +1.7332401e+01 </wgt>
<wgt id='52'> +1.7682847e+01 </wgt>
<wgt id='53'> +1.7195594e+01 </wgt>
<wgt id='54'> +1.7682283e+01 </wgt>
<wgt id='55'> +1.6898620e+01 </wgt>
<wgt id='56'> +1.6618403e+01 </wgt>
<wgt id='57'> +1.7530614e+01 </wgt>
<wgt id='58'> +1.7665406e+01 </wgt>
<wgt id='59'> +1.8054374e+01 </wgt>
<wgt id='60'> +1.8072219e+01 </wgt>
<wgt id='61'> +1.6061479e+01 </wgt>
<wgt id='62'> +1.7449486e+01 </wgt>
<wgt id='63'> +1.7695321e+01 </wgt>
<wgt id='64'> +1.7484558e+01 </wgt>
<wgt id='65'> +1.8626120e+01 </wgt>
<wgt id='66'> +1.7168993e+01 </wgt>
<wgt id='67'> +1.7509448e+01 </wgt>
<wgt id='68'> +1.8578798e+01 </wgt>
<wgt id='69'> +1.7124228e+01 </wgt>
<wgt id='70'> +1.7311691e+01 </wgt>
<wgt id='71'> +1.7517311e+01 </wgt>
<wgt id='72'> +1.7323099e+01 </wgt>
<wgt id='73'> +1.7524975e+01 </wgt>
<wgt id='74'> +1.8272390e+01 </wgt>
<wgt id='75'> +1.7921859e+01 </wgt>
<wgt id='76'> +1.7261703e+01 </wgt>
<wgt id='77'> +1.7459730e+01 </wgt>
<wgt id='78'> +1.7122629e+01 </wgt>
<wgt id='79'> +1.7584969e+01 </wgt>
<wgt id='80'> +1.7150819e+01 </wgt>
<wgt id='81'> +1.7240899e+01 </wgt>
<wgt id='82'> +1.7450998e+01 </wgt>
<wgt id='83'> +1.7404328e+01 </wgt>
<wgt id='84'> +1.8024577e+01 </wgt>
<wgt id='85'> +1.7996241e+01 </wgt>
<wgt id='86'> +1.7513221e+01 </wgt>
<wgt id='87'> +1.7726297e+01 </wgt>
<wgt id='88'> +1.7202104e+01 </wgt>
<wgt id='89'> +1.8121260e+01 </wgt>
<wgt id='90'> +1.7998856e+01 </wgt>
<wgt id='91'> +1.7912629e+01 </wgt>
<wgt id='92'> +1.6448869e+01 </wgt>
<wgt id='93'> +1.7680883e+01 </wgt>
<wgt id='94'> +1.7352114e+01 </wgt>
<wgt id='95'> +1.7319166e+01 </wgt>
<wgt id='96'> +1.8319411e+01 </wgt>
<wgt id='97'> +1.7463578e+01 </wgt>
<wgt id='98'> +1.7129089e+01 </wgt>
<wgt id='99'> +1.7321607e+01 </wgt>
<wgt id='100'> +1.7069788e+01 </wgt>
<wgt id='101'> +1.8741936e+01 </wgt>
<wgt id='102'> +1.7766816e+01 </wgt>
<wgt id='103'> +1.8624249e+01 </wgt>
<wgt id='104'> +1.7320609e+01 </wgt>
<wgt id='105'> +1.7944184e+01 </wgt>
<wgt id='106'> +1.6533156e+01 </wgt>
<wgt id='107'> +1.7136355e+01 </wgt>
<wgt id='108'> +1.6005798e+01 </wgt>
<wgt id='109'> +1.6950129e+01 </wgt>
<wgt id='110'> +1.7725773e+01 </wgt>
<wgt id='111'> +1.7116848e+01 </wgt>
<wgt id='112'> +1.6858454e+01 </wgt>
<wgt id='113'> +1.6783195e+01 </wgt>
<wgt id='114'> +1.7318832e+01 </wgt>
<wgt id='115'> +1.6688584e+01 </wgt>
<wgt id='116'> +1.7824400e+01 </wgt>
<wgt id='117'> +1.7375893e+01 </wgt>
<wgt id='118'> +1.8234893e+01 </wgt>
<wgt id='119'> +1.7296529e+01 </wgt>
<wgt id='120'> +1.7090001e+01 </wgt>
<wgt id='121'> +1.7519814e+01 </wgt>
<wgt id='122'> +1.7455015e+01 </wgt>
<wgt id='123'> +1.7507279e+01 </wgt>
<wgt id='124'> +1.8663799e+01 </wgt>
<wgt id='125'> +1.8870499e+01 </wgt>
<wgt id='126'> +1.7957517e+01 </wgt>
<wgt id='127'> +1.7997405e+01 </wgt>
<wgt id='128'> +1.6145120e+01 </wgt>
<wgt id='129'> +1.8961015e+01 </wgt>
<wgt id='130'> +1.6972880e+01 </wgt>
<wgt id='131'> +1.8143558e+01 </wgt>
<wgt id='132'> +1.8193871e+01 </wgt>
<wgt id='133'> +1.7909844e+01 </wgt>
<wgt id='134'> +1.7161144e+01 </wgt>
<wgt id='135'> +1.7873595e+01 </wgt>
<wgt id='136'> +1.7959193e+01 </wgt>
<wgt id='137'> +1.6777378e+01 </wgt>
<wgt id='138'> +1.6490043e+01 </wgt>
<wgt id='139'> +1.8156670e+01 </wgt>
<wgt id='140'> +1.8014143e+01 </wgt>
<wgt id='141'> +1.7450664e+01 </wgt>
<wgt id='142'> +1.7130158e+01 </wgt>
<wgt id='143'> +1.7821279e+01 </wgt>
<wgt id='144'> +1.7441199e+01 </wgt>
<wgt id='145'> +1.7358579e+01 </wgt>
</rwgt>
</event>
<event>
 3      1 +1.7556000e+01 1.25000000e+02 7.54677100e-03 1.23506900e-01
       21 -1    0    0  502  501 +0.0000000000e+00 +0.0000000000e+00 +4.5909106629e+01 4.5909106629e+01 0.0000000000e+00 0.0000e+00 1.0000e+00
       21 -1    0    0  501  502 -0.0000000000e+00 -0.0000000000e+00 -8.5086604528e+01 8.5086604528e+01 0.0000000000e+00 0.0000e+00 1.0000e+00
       25  1    1    2    0    0 +0.0000000000e+00 +0.0000000000e+00 -3.9177497898e+01 1.3099571116e+02 1.2500000000e+02 0.0000e+00 0.0000e+00
<mgrwt>
<rscale>  0 0.12500000E+03</rscale>
<asrwt>0</asrwt>
<pdfrwt beam="1">  1       21 0.70629396E-02 0.12500000E+03</pdfrwt>
<pdfrwt beam="2">  1       21 0.13090247E-01 0.12500000E+03</pdfrwt>
<totfact> 0.73231249E+06</totfact>
</mgrwt>
<rwgt>
<wgt id='1'> +1.6653125e+01 </wgt>
<wgt id='2'> +0.0000000e+00 </wgt>
<wgt id='3'> +1.6653125e+01 </wgt>
<wgt id='4'> +1.5367745e+01 </wgt>
<wgt id='5'> +1.6653125e+01 </wgt>
<wgt id='6'> +1.7556000e+01 </wgt>
<wgt id='7'> +0.0000000e+00 </wgt>
<wgt id='8'> +1.7556000e+01 </wgt>
<wgt id='9'> +1.6653125e+01 </wgt>
<wgt id='10'> +1.7556000e+01 </wgt>
<wgt id='11'> +1.8013792e+01 </wgt>
<wgt id='12'> +0.0000000e+00 </wgt>
<wgt id='13'> +1.8013792e+01 </wgt>
<wgt id='14'> +1.7556000e+01 </wgt>
<wgt id='15'> +1.8013792e+01 </wgt>
<wgt id='16'> +1.6653125e+01 </wgt>
<wgt id='17'> +0.0000000e+00 </wgt>
<wgt id='18'> +1.6653125e+01 </wgt>
<wgt id='19'> +1.5367745e+01 </wgt>
<wgt id='20'> +1.6653125e+01 </wgt>
<wgt id='21'> +0.0000000e+00 </wgt>
<wgt id='22'> +1.7556000e+01 </wgt>
<wgt id='23'> +1.6653125e+01 </wgt>
<wgt id='24'> +1.7556000e+01 </wgt>
<wgt id='25'> +1.8013792e+01 </wgt>
<wgt id='26'> +0.0000000e+00 </wgt>
<wgt id='27'> +1.8013792e+01 </wgt>
<wgt id='28'> +1.7556000e+01 </wgt>
<wgt id='29'> +1.8013792e+01 </wgt>
<wgt id='30'> +1.6653125e+01 </wgt>
<wgt id='31'> +0.0000000e+00 </wgt>
<wgt id='32'> +1.6653125e+01 </wgt>
<wgt id='33'> +1.5367745e+01 </wgt>
<wgt id='34'> +1.6653125e+01 </wgt>
<wgt id='35'> +1.7556000e+01 </wgt>
<wgt id='36'> +0.0000000e+00 </wgt>
<wgt id='37'> +1.7556000e+01 </wgt>
<wgt id='38'> +1.6653125e+01 </wgt>
<wgt id='39'> +1.7556000e+01 </wgt>
<wgt id='40'> +1.8013792e+01 </wgt>
<wgt id='41'> +0.0000000e+00 </wgt>
<wgt id='42'> +1.8013792e+01 </wgt>
<wgt id='43'> +1.7556000e+01 </wgt>
<wgt id='44'> +1.8013792e+01 </wgt>
<wgt id='45'> +1.7556000e+01 </wgt>
<wgt id='46'> +1.6972494e+01 </wgt>
<wgt id='47'> +1.7494018e+01 </wgt>
<wgt id='48'> +1.7140392e+01 </wgt>
<wgt id='49'> +1.7565111e+01 </wgt>
<wgt id='50'> +1.7862231e+01 </wgt>
<wgt id='51'> +1.7274080e+01 </wgt>
<wgt id='52'> +1.7394453e+01 </wgt>
<wgt id='53'> +1.8014743e+01 </wgt>
<wgt id='54'> +1.7641581e+01 </wgt>
<wgt id='55'> +1.6635121e+01 </wgt>
<wgt id='56'> +1.7356659e+01 </wgt>
<wgt id='57'> +1.7408967e+01 </wgt>
<wgt id='58'> +1.8361754e+01 </wgt>
<wgt id='59'> +1.7015812e+01 </wgt>
<wgt id='60'> +1.6804077e+01 </wgt>
<wgt id='61'> +1.8136694e+01 </wgt>
<wgt id='62'> +1.7213418e+01 </wgt>
<wgt id='63'> +1.7600268e+01 </wgt>
<wgt id='64'> +1.8027398e+01 </wgt>
<wgt id='65'> +1.9311844e+01 </wgt>
<wgt id='66'> +1.7102153e+01 </wgt>
<wgt id='67'> +1.7682879e+01 </wgt>
<wgt id='68'> +1.7926003e+01 </wgt>
<wgt id='69'> +1.6263094e+01 </wgt>
<wgt id='70'> +1.7545631e+01 </wgt>
<wgt id='71'> +1.7844525e+01 </wgt>
<wgt id='72'> +1.8693266e+01 </wgt>
<wgt id='73'> +1.7750213e+01 </wgt>
<wgt id='74'> +1.7340840e+01 </wgt>
<wgt id='75'> +1.7594737e+01 </wgt>
<wgt id='76'> +1.7463770e+01 </wgt>
<wgt id='77'> +1.6774285e+01 </wgt>
<wgt id='78'> +1.8114069e+01 </wgt>
<wgt id='79'> +1.6789598e+01 </wgt>
<wgt id='80'> +1.7661120e+01 </wgt>
<wgt id='81'> +1.7638920e+01 </wgt>
<wgt id='82'> +1.8139503e+01 </wgt>
<wgt id='83'> +1.7258619e+01 </wgt>
<wgt id='84'> +1.8199495e+01 </wgt>
<wgt id='85'> +1.8045438e+01 </wgt>
<wgt id='86'> +1.7016254e+01 </wgt>
<wgt id='87'> +1.7352697e+01 </wgt>
<wgt id='88'> +1.7340953e+01 </wgt>
<wgt id='89'> +1.7574049e+01 </wgt>
<wgt id='90'> +1.7600038e+01 </wgt>
<wgt id='91'> +1.8455962e+01 </wgt>
<wgt id='92'> +1.7999528e+01 </wgt>
<wgt id='93'> +1.7000766e+01 </wgt>
<wgt id='94'> +1.7965184e+01 </wgt>
<wgt id='95'> +1.7504612e+01 </wgt>
<wgt id='96'> +1.7559785e+01 </wgt>
<wgt id='97'> +1.8057226e+01 </wgt>
<wgt id='98'> +1.6854247e+01 </wgt>
<wgt id='99'> +1.7441177e+01 </wgt>
<wgt id='100'> +1.8580710e+01 </wgt>
<wgt id='101'> +1.7144166e+01 </wgt>
<wgt id='102'> +1.6214588e+01 </wgt>
<wgt id='103'> +1.8109078e+01 </wgt>
<wgt id='104'> +1.7074634e+01 </wgt>
<wgt id='105'> +1.8651820e+01 </wgt>
<wgt id='106'> +1.7751842e+01 </wgt>
<wgt id='107'> +1.8533470e+01 </wgt>
<wgt id='108'> +1.7283654e+01 </wgt>
<wgt id='109'> +1.7522028e+01 </wgt>
<wgt id='110'> +1.7892203e+01 </wgt>
<wgt id='111'> +1.7598032e+01 </wgt>
<wgt id='112'> +1.7531838e+01 </wgt>
<wgt id='113'> +1.7106988e+01 </wgt>
<wgt id='114'> +1.8575783e+01 </wgt>
<wgt id='115'> +1.8262792e+01 </wgt>
<wgt id='116'> +1.6596203e+01 </wgt>
<wgt id='117'> +1.7926025e+01 </wgt>
<wgt id='118'> +1.7054754e+01 </wgt>
<wgt id='119'> +1.7514311e+01 </wgt>
<wgt id='120'> +1.7869431e+01 </wgt>
<wgt id='121'> +1.7698950e+01 </wgt>
<wgt id='122'> +1.7542749e+01 </wgt>
<wgt id='123'> +1.7305474e+01 </wgt>
<wgt id='124'> +1.7454908e+01 </wgt>
<wgt id='125'> +1.7660488e+01 </wgt>
<wgt id='126'> +1.7563711e+01 </wgt>
<wgt id='127'> +1.7572984e+01 </wgt>
<wgt id='128'> +1.6967030e+01 </wgt>
<wgt id='129'> +1.8966091e+01 </wgt>
<wgt id='130'> +1.7139492e+01 </wgt>
<wgt id='131'> +1.8452924e+01 </wgt>
<wgt id='132'> +1.7146472e+01 </wgt>
<wgt id='133'> +1.6857429e+01 </wgt>
<wgt id='134'> +1.6837473e+01 </wgt>
<wgt id='135'> +1.7881803e+01 </wgt>
<wgt id='136'> +1.6878255e+01 </wgt>
<wgt id='137'> +1.6420223e+01 </wgt>
<wgt id='138'> +1.5341585e+01 </wgt>
<wgt id='139'> +1.7533379e+01 </wgt>
<wgt id='140'> +1.8680482e+01 </wgt>
<wgt id='141'> +1.7283034e+01 </wgt>
<wgt id='142'> +1.8368239e+01 </wgt>
<wgt id='143'> +1.7332325e+01 </wgt>
<wgt id='144'> +1.8159450e+01 </wgt>
<wgt id='145'> +1.7511170e+01 </wgt>
</rwgt>
</event>
<event>
 3      1 +1.7556000e+01 1.25000000e+02 7.54677100e-03 1.23506900e-01
       21 -1    0    0  502  501 +0.0000000000e+00 +0.0000000000e+00 +7.0293620895e+02 7.0293620895e+02 0.0000000000e+00 0.0000e+00 -1.0000e+00
       21 -1    0    0  501  502 -0.0000000000e+00 -0.0000000000e+00 -5.5570476386e+00 5.5570476386e+00 0.0000000000e+00 0.0000e+00 -1.0000e+00
       25  1    1    2    0    0 +0.0000000000e+00 +0.0000000000e+00 +6.9737916131e+02 7.0849325659e+02 1.2500000000e+02 0.0000e+00 0.0000e+00
<mgrwt>
<rscale>  0 0.12500000E+03</rscale>
<asrwt>0</asrwt>
<pdfrwt beam="1">  1       21 0.10814396E+00 0.12500000E+03</pdfrwt>
<pdfrwt beam="2">  1       21 0.85493096E-03 0.12500000E+03</pdfrwt>
<totfact> 0.32585276E+06</totfact>
</mgrwt>
<rwgt>
<wgt id='1'> +1.7130269e+01 </wgt>
<wgt id='2'> +0.0000000e+00 </wgt>
<wgt id='3'> +1.7130269e+01 </wgt>
<wgt id='4'> +1.6318967e+01 </wgt>
<wgt id='5'> +1.7130269e+01 </wgt>
<wgt id='6'> +1.7556000e+01 </wgt>
<wgt id='7'> +0.0000000e+00 </wgt>
<wgt id='8'> +1.7556000e+01 </wgt>
<wgt id='9'> +1.7130269e+01 </wgt>
<wgt id='10'> +1.7556000e+01 </wgt>
<wgt id='11'> +1.7562175e+01 </wgt>
<wgt id='12'> +0.0000000e+00 </wgt>
<wgt id='13'> +1.7562175e+01 </wgt>
<wgt id='14'> +1.7556000e+01 </wgt>
<wgt id='15'> +1.7562175e+01 </wgt>
<wgt id='16'> +1.7130269e+01 </wgt>
<wgt id='17'> +0.0000000e+00 </wgt>
<wgt id='18'> +1.7130269e+01 </wgt>
<wgt id='19'> +1.6318967e+01 </wgt>
<wgt id='20'> +1.7130269e+01 </wgt>
<wgt id='21'> +0.0000000e+00 </wgt>
<wgt id='22'> +1.7556000e+01 </wgt>
<wgt id='23'> +1.7130269e+01 </wgt>
<wgt id='24'> +1.7556000e+01 </wgt>
<wgt id='25'> +1.7562175e+01 </wgt>
<wgt id='26'> +0.0000000e+00 </wgt>
<wgt id='27'> +1.7562175e+01 </wgt>
<wgt id='28'> +1.7556000e+01 </wgt>
<wgt id='29'> +1.7562175e+01 </wgt>
<wgt id='30'> +1.7130269e+01 </wgt>
<wgt id='31'> +0.0000000e+00 </wgt>
<wgt id='32'> +1.7130269e+01 </wgt>
<wgt id='33'> +1.6318967e+01 </wgt>
<wgt id='34'> +1.7130269e+01 </wgt>
<wgt id='35'> +1.7556000e+01 </wgt>
<wgt id='36'> +0.0000000e+00 </wgt>
<wgt id='37'> +1.7556000e+01 </wgt>
<wgt id='38'> +1.7130269e+01 </wgt>
<wgt id='39'> +1.7556000e+01 </wgt>
<wgt id='40'> +1.7562175e+01 </wgt>
<wgt id='41'> +0.0000000e+00 </wgt>
<wgt id='42'> +1.7562175e+01 </wgt>
<wgt id='43'> +1.7556000e+01 </wgt>
<wgt id='44'> +1.7562175e+01 </wgt>
<wgt id='45'> +1.7556000e+01 </wgt>
<wgt id='46'> +1.7964751e+01 </wgt>
<wgt id='47'> +1.7599036e+01 </wgt>
<wgt id='48'> +1.7676776e+01 </wgt>
<wgt id='49'> +1.7518382e+01 </wgt>
<wgt id='50'> +1.9453911e+01 </wgt>
<wgt id='51'> +1.7242747e+01 </wgt>
<wgt id='52'> +1.7671491e+01 </wgt>
<wgt id='53'> +1.7015706e+01 </wgt>
<wgt id='54'> +1.7825880e+01 </wgt>
<wgt id='55'> +1.7453536e+01 </wgt>
<wgt id='56'> +1.6515703e+01 </wgt>
<wgt id='57'> +1.7810929e+01 </wgt>
<wgt id='58'> +1.7335320e+01 </wgt>
<wgt id='59'> +1.8492784e+01 </wgt>
<wgt id='60'> +1.8366701e+01 </wgt>
<wgt id='61'> +1.5446218e+01 </wgt>
<wgt id='62'> +1.7355644e+01 </wgt>
<wgt id='63'> +1.7785611e+01 </wgt>
<wgt id='64'> +1.7467549e+01 </wgt>
<wgt id='65'> +1.8117161e+01 </wgt>
<wgt id='66'> +1.7218818e+01 </wgt>
<wgt id='67'> +1.7446574e+01 </wgt>
<wgt id='68'> +1.8823327e+01 </wgt>
<wgt id='69'> +1.7397603e+01 </wgt>
<wgt id='70'> +1.7379112e+01 </wgt>
<wgt id='71'> +1.7321730e+01 </wgt>
<wgt id='72'> +1.7138013e+01 </wgt>
<wgt id='73'> +1.7296066e+01 </wgt>
<wgt id='74'> +1.8588952e+01 </wgt>
<wgt id='75'> +1.8037349e+01 </wgt>
<wgt id='76'> +1.7411045e+01 </wgt>
<wgt id='77'> +1.7561764e+01 </wgt>
<wgt id='78'> +1.6687516e+01 </wgt>
<wgt id='79'> +1.7902785e+01 </wgt>
<wgt id='80'> +1.6905318e+01 </wgt>
<wgt id='81'> +1.7237069e+01 </wgt>
<wgt id='82'> +1.7087765e+01 </wgt>
<wgt id='83'> +1.7321731e+01 </wgt>
<wgt id='84'> +1.7741039e+01 </wgt>
<wgt id='85'> +1.7659983e+01 </wgt>
<wgt id='86'> +1.7660633e+01 </wgt>
<wgt id='87'> +1.7770873e+01 </wgt>
<wgt id='88'> +1.7061492e+01 </wgt>
<wgt id='89'> +1.7916552e+01 </wgt>
<wgt id='90'> +1.7961753e+01 </wgt>
<wgt id='91'> +1.7437990e+01 </wgt>
<wgt id='92'> +1.6347293e+01 </wgt>
<wgt id='93'> +1.7817759e+01 </wgt>
<wgt id='94'> +1.7095515e+01 </wgt>
<wgt id='95'> +1.7595100e+01 </wgt>
<wgt id='96'> +1.8270599e+01 </wgt>
<wgt id='97'> +1.7175008e+01 </wgt>
<wgt id='98'> +1.7423833e+01 </wgt>
<wgt id='99'> +1.7025386e+01 </wgt>
<wgt id='100'> +1.6362931e+01 </wgt>
<wgt id='101'> +1.9223080e+01 </wgt>
<wgt id='102'> +1.8341651e+01 </wgt>
<wgt id='103'> +1.8442296e+01 </wgt>
<wgt id='104'> +1.7462263e+01 </wgt>
<wgt id='105'> +1.7837587e+01 </wgt>
<wgt id='106'> +1.6477284e+01 </wgt>
<wgt id='107'> +1.6840763e+01 </wgt>
<wgt id='108'> +1.5921691e+01 </wgt>
<wgt id='109'> +1.7027873e+01 </wgt>
<wgt id='110'> +1.7562765e+01 </wgt>
<wgt id='111'> +1.7103487e+01 </wgt>
<wgt id='112'> +1.6942009e+01 </wgt>
<wgt id='113'> +1.6977769e+01 </wgt>
<wgt id='114'> +1.7279588e+01 </wgt>
<wgt id='115'> +1.6316192e+01 </wgt>
<wgt id='116'> +1.8186407e+01 </wgt>
<wgt id='117'> +1.7202326e+01 </wgt>
<wgt id='118'> +1.8456865e+01 </wgt>
<wgt id='119'> +1.7542841e+01 </wgt>
<wgt id='120'> +1.7080092e+01 </wgt>
<wgt id='121'> +1.7619375e+01 </wgt>
<wgt id='122'> +1.7448168e+01 </wgt>
<wgt id='123'> +1.7440815e+01 </wgt>
<wgt id='124'> +1.8985442e+01 </wgt>
<wgt id='125'> +1.9368978e+01 </wgt>
<wgt id='126'> +1.7853435e+01 </wgt>
<wgt id='127'> +1.7921074e+01 </wgt>
<wgt id='128'> +1.6058478e+01 </wgt>
<wgt id='129'> +1.8757221e+01 </wgt>
<wgt id='130'> +1.6833619e+01 </wgt>
<wgt id='131'> +1.7797341e+01 </wgt>
<wgt id='132'> +1.8659630e+01 </wgt>
<wgt id='133'> +1.8279540e+01 </wgt>
<wgt id='134'> +1.7442702e+01 </wgt>
<wgt id='135'> +1.7732277e+01 </wgt>
<wgt id='136'> +1.8689917e+01 </wgt>
<wgt id='137'> +1.6981913e+01 </wgt>
<wgt id='138'> +1.6886213e+01 </wgt>
<wgt id='139'> +1.8267956e+01 </wgt>
<wgt id='140'> +1.7720653e+01 </wgt>
<wgt id='141'> +1.7689863e+01 </wgt>
<wgt id='142'> +1.6482254e+01 </wgt>
<wgt id='143'> +1.7991515e+01 </wgt>
<wgt id='144'> +1.7159120e+01 </wgt>
<wgt id='145'> +1.7148552e+01 </wgt>
</rwgt>
</event>
<event>
 3      1 +1.7556000e+01 1.25000000e+02 7.54677100e-03 1.23506900e-01
       21 -1    0    0  502  501 +0.0000000000e+00 +0.0000000000e+00 +2.4359824353e+02 2.4359824353e+02 0.0000000000e+00 0.0000e+00 1.0000e+00
       21 -1    0    0  501  502 -0.0000000000e+00 -0.0000000000e+00 -1.6035624656e+01 1.6035624656e+01 0.0000000000e+00 0.0000e+00 1.0000e+00
       25  1    1    2    0    0 +0.0000000000e+00 +0.0000000000e+00 +2.2756261887e+02 2.5963386818e+02 1.2500000000e+02 0.0000e+00 0.0000e+00
<mgrwt>
<rscale>  0 0.12500000E+03</rscale>
<asrwt>0</asrwt>
<pdfrwt beam="1">  1       21 0.37476650E-01 0.12500000E+03</pdfrwt>
<pdfrwt beam="2">  1       21 0.24670194E-02 0.12500000E+03</pdfrwt>
<totfact> 0.58982847E+06</totfact>
</mgrwt>
<rwgt>
<wgt id='1'> +1.6774637e+01 </wgt>
<wgt id='2'> +0.0000000e+00 </wgt>
<wgt id='3'> +1.6774637e+01 </wgt>
<wgt id='4'> +1.5612086e+01 </wgt>
<wgt id='5'> +1.6774637e+01 </wgt>
<wgt id='6'> +1.7556000e+01 </wgt>
<wgt id='7'> +0.0000000e+00 </wgt>
<wgt id='8'> +1.7556000e+01 </wgt>
<wgt id='9'> +1.6774637e+01 </wgt>
<wgt id='10'> +1.7556000e+01 </wgt>
<wgt id='11'> +1.7899926e+01 </wgt>
<wgt id='12'> +0.0000000e+00 </wgt>
<wgt id='13'> +1.7899926e+01 </wgt>
<wgt id='14'> +1.7556000e+01 </wgt>
<wgt id='15'> +1.7899926e+01 </wgt>
<wgt id='16'> +1.6774637e+01 </wgt>
<wgt id='17'> +0.0000000e+00 </wgt>
<wgt id='18'> +1.6774637e+01 </wgt>
<wgt id='19'> +1.5612086e+01 </wgt>
<wgt id='20'> +1.6774637e+01 </wgt>
<wgt id='21'> +0.0000000e+00 </wgt>
<wgt id='22'> +1.7556000e+01 </wgt>
<wgt id='23'> +1.6774637e+01 </wgt>
<wgt id='24'> +1.7556000e+01 </wgt>
<wgt id='25'> +1.7899926e+01 </wgt>
<wgt id='26'> +0.0000000e+00 </wgt>
<wgt id='27'> +1.7899926e+01 </wgt>
<wgt id='28'> +1.7556000e+01 </wgt>
<wgt id='29'> +1.7899926e+01 </wgt>
<wgt id='30'> +1.6774637e+01 </wgt>
<wgt id='31'> +0.0000000e+00 </wgt>
<wgt id='32'> +1.6774637e+01 </wgt>
<wgt id='33'> +1.5612086e+01 </wgt>
<wgt id='34'> +1.6774637e+01 </wgt>
<wgt id='35'> +1.7556000e+01 </wgt>
<wgt id='36'> +0.0000000e+00 </wgt>
<wgt id='37'> +1.7556000e+01 </wgt>
<wgt id='38'> +1.6774637e+01 </wgt>
<wgt id='39'> +1.7556000e+01 </wgt>
<wgt id='40'> +1.7899926e+01 </wgt>
<wgt id='41'> +0.0000000e+00 </wgt>
<wgt id='42'> +1.7899926e+01 </wgt>
<wgt id='43'> +1.7556000e+01 </wgt>
<wgt id='44'> +1.7899926e+01 </wgt>
<wgt id='45'> +1.7556000e+01 </wgt>
<wgt id='46'> +1.7258763e+01 </wgt>
<wgt id='47'> +1.7608145e+01 </wgt>
<wgt id='48'> +1.7363644e+01 </wgt>
<wgt id='49'> +1.7688885e+01 </wgt>
<wgt id='50'> +1.8431109e+01 </wgt>
<wgt id='51'> +1.7333340e+01 </wgt>
<wgt id='52'> +1.7476174e+01 </wgt>
<wgt id='53'> +1.7754148e+01 </wgt>
<wgt id='54'> +1.7619336e+01 </wgt>
<wgt id='55'> +1.6436857e+01 </wgt>
<wgt id='56'> +1.7116168e+01 </wgt>
<wgt id='57'> +1.7275719e+01 </wgt>
<wgt id='58'> +1.8184708e+01 </wgt>
<wgt id='59'> +1.7214045e+01 </wgt>
<wgt id='60'> +1.7202464e+01 </wgt>
<wgt id='61'> +1.7755353e+01 </wgt>
<wgt id='62'> +1.7359648e+01 </wgt>
<wgt id='63'> +1.7642873e+01 </wgt>
<wgt id='64'> +1.7832743e+01 </wgt>
<wgt id='65'> +1.9233308e+01 </wgt>
<wgt id='66'> +1.7117231e+01 </wgt>
<wgt id='67'> +1.7628458e+01 </wgt>
<wgt id='68'> +1.8114609e+01 </wgt>
<wgt id='69'> +1.6559665e+01 </wgt>
<wgt id='70'> +1.7424491e+01 </wgt>
<wgt id='71'> +1.7722185e+01 </wgt>
<wgt id='72'> +1.8031756e+01 </wgt>
<wgt id='73'> +1.7741654e+01 </wgt>
<wgt id='74'> +1.7647995e+01 </wgt>
<wgt id='75'> +1.7727344e+01 </wgt>
<wgt id='76'> +1.7242507e+01 </wgt>
<wgt id='77'> +1.7003912e+01 </wgt>
<wgt id='78'> +1.7877257e+01 </wgt>
<wgt id='79'> +1.7009275e+01 </wgt>
<wgt id='80'> +1.7517896e+01 </wgt>
<wgt id='81'> +1.7462384e+01 </wgt>
<wgt id='82'> +1.8061912e+01 </wgt>
<wgt id='83'> +1.7378900e+01 </wgt>
<wgt id='84'> +1.8261344e+01 </wgt>
<wgt id='85'> +1.8225914e+01 </wgt>
<wgt id='86'> +1.7201572e+01 </wgt>
<wgt id='87'> +1.7495169e+01 </wgt>
<wgt id='88'> +1.7362558e+01 </wgt>
<wgt id='89'> +1.7883341e+01 </wgt>
<wgt id='90'> +1.7728745e+01 </wgt>
<wgt id='91'> +1.8423549e+01 </wgt>
<wgt id='92'> +1.7175576e+01 </wgt>
<wgt id='93'> +1.7262479e+01 </wgt>
<wgt id='94'> +1.7765358e+01 </wgt>
<wgt id='95'> +1.7226818e+01 </wgt>
<wgt id='96'> +1.7998935e+01 </wgt>
<wgt id='97'> +1.7897778e+01 </wgt>
<wgt id='98'> +1.6824433e+01 </wgt>
<wgt id='99'> +1.7515980e+01 </wgt>
<wgt id='100'> +1.8187583e+01 </wgt>
<wgt id='101'> +1.7639351e+01 </wgt>
<wgt id='102'> +1.6645213e+01 </wgt>
<wgt id='103'> +1.8422314e+01 </wgt>
<wgt id='104'> +1.7150285e+01 </wgt>
<wgt id='105'> +1.8342851e+01 </wgt>
<wgt id='106'> +1.7170593e+01 </wgt>
<wgt id='107'> +1.8042673e+01 </wgt>
<wgt id='108'> +1.6724418e+01 </wgt>
<wgt id='109'> +1.7216488e+01 </wgt>
<wgt id='110'> +1.7872684e+01 </wgt>
<wgt id='111'> +1.7347608e+01 </wgt>
<wgt id='112'> +1.7258264e+01 </wgt>
<wgt id='113'> +1.6877274e+01 </wgt>
<wgt id='114'> +1.8055129e+01 </wgt>
<wgt id='115'> +1.7785789e+01 </wgt>
<wgt id='116'> +1.7013255e+01 </wgt>
<wgt id='117'> +1.7797615e+01 </wgt>
<wgt id='118'> +1.7488763e+01 </wgt>
<wgt id='119'> +1.7312403e+01 </wgt>
<wgt id='120'> +1.7630984e+01 </wgt>
<wgt id='121'> +1.7543408e+01 </wgt>
<wgt id='122'> +1.7474635e+01 </wgt>
<wgt id='123'> +1.7443253e+01 </wgt>
<wgt id='124'> +1.7846905e+01 </wgt>
<wgt id='125'> +1.8014672e+01 </wgt>
<wgt id='126'> +1.7852253e+01 </wgt>
<wgt id='127'> +1.7799535e+01 </wgt>
<wgt id='128'> +1.6679335e+01 </wgt>
<wgt id='129'> +1.9034875e+01 </wgt>
<wgt id='130'> +1.7184096e+01 </wgt>
<wgt id='131'> +1.8479571e+01 </wgt>
<wgt id='132'> +1.7294215e+01 </wgt>
<wgt id='133'> +1.7172393e+01 </wgt>
<wgt id='134'> +1.6810171e+01 </wgt>
<wgt id='135'> +1.7940016e+01 </wgt>
<wgt id='136'> +1.6960814e+01 </wgt>
<wgt id='137'> +1.6502233e+01 </wgt>
<wgt id='138'> +1.5719766e+01 </wgt>
<wgt id='139'> +1.7775806e+01 </wgt>
<wgt id='140'> +1.8542469e+01 </wgt>
<wgt id='141'> +1.7285163e+01 </wgt>
<wgt id='142'> +1.8151494e+01 </wgt>
<wgt id='143'> +1.7407182e+01 </wgt>
<wgt id='144'> +1.7912155e+01 </wgt>
<wgt id='145'> +1.7474699e+01 </wgt>
</rwgt>
</event>
<event>
 3      1 +1.7556000e+01 1.25000000e+02 7.54677100e-03 1.23506900e-01
       21 -1    0    0  502  501 +0.0000000000e+00 +0.0000000000e+00 +2.3337291853e+01 2.3337291853e+01 0.0000000000e+00 0.0000e+00 -1.0000e+00
       21 -1    0    0  501  502 -0.0000000000e+00 -0.0000000000e+00 -1.6738231773e+02 1.6738231773e+02 0.0000000000e+00 0.0000e+00 -1.0000e+00
       25  1    1    2    0    0 +0.0000000000e+00 +0.0000000000e+00 -1.4404502588e+02 1.9071960959e+02 1.2500000000e+02 0.0000e+00 0.0000e+00
<mgrwt>
<rscale>  0 0.12500000E+03</rscale>
<asrwt>0</asrwt>
<pdfrwt beam="1">  1       21 0.35903527E-02 0.12500000E+03</pdfrwt>
<pdfrwt beam="2">  1       21 0.25751125E-01 0.12500000E+03</pdfrwt>
<totfact> 0.65942576E+06</totfact>
</mgrwt>
<rwgt>
<wgt id='1'> +1.6712436e+01 </wgt>
<wgt id='2'> +0.0000000e+00 </wgt>
<wgt id='3'> +1.6712436e+01 </wgt>
<wgt id='4'> +1.5487199e+01 </wgt>
<wgt id='5'> +1.6712436e+01 </wgt>
<wgt id='6'> +1.7556000e+01 </wgt>
<wgt id='7'> +0.0000000e+00 </wgt>
<wgt id='8'> +1.7556000e+01 </wgt>
<wgt id='9'> +1.6712436e+01 </wgt>
<wgt id='10'> +1.7556000e+01 </wgt>
<wgt id='11'> +1.7958364e+01 </wgt>
<wgt id='12'> +0.0000000e+00 </wgt>
<wgt id='13'> +1.7958364e+01 </wgt>
<wgt id='14'> +1.7556000e+01 </wgt>
<wgt id='15'> +1.7958364e+01 </wgt>
<wgt id='16'> +1.6712436e+01 </wgt>
<wgt id='17'> +0.0000000e+00 </wgt>
<wgt id='18'> +1.6712436e+01 </wgt>
<wgt id='19'> +1.5487199e+01 </wgt>
<wgt id='20'> +1.6712436e+01 </wgt>
<wgt id='21'> +0.0000000e+00 </wgt>
<wgt id='22'> +1.7556000e+01 </wgt>
<wgt id='23'> +1.6712436e+01 </wgt>
<wgt id='24'> +1.7556000e+01 </wgt>
<wgt id='25'> +1.7958364e+01 </wgt>
<wgt id='26'> +0.0000000e+00 </wgt>
<wgt id='27'> +1.7958364e+01 </wgt>
<wgt id='28'> +1.7556000e+01 </wgt>
<wgt id='29'> +1.7958364e+01 </wgt>
<wgt id='30'> +1.6712436e+01 </wgt>
<wgt id='31'> +0.0000000e+00 </wgt>
<wgt id='32'> +1.6712436e+01 </wgt>
<wgt id='33'> +1.5487199e+01 </wgt>
<wgt id='34'> +1.6712436e+01 </wgt>
<wgt id='35'> +1.7556000e+01 </wgt>
<wgt id='36'> +0.0000000e+00 </wgt>
<wgt id='37'> +1.7556000e+01 </wgt>
<wgt id='38'> +1.6712436e+01 </wgt>
<wgt id='39'> +1.7556000e+01 </wgt>
<wgt id='40'> +1.7958364e+01 </wgt>
<wgt id='41'> +0.0000000e+00 </wgt>
<wgt id='42'> +1.7958364e+01 </wgt>
<wgt id='43'> +1.7556000e+01 </wgt>
<wgt id='44'> +1.7958364e+01 </wgt>
<wgt id='45'> +1.7556000e+01 </wgt>
<wgt id='46'> +1.7108030e+01 </wgt>
<wgt id='47'> +1.7555489e+01 </wgt>
<wgt id='48'> +1.7252150e+01 </wgt>
<wgt id='49'> +1.7633724e+01 </wgt>
<wgt id='50'> +1.8144341e+01 </wgt>
<wgt id='51'> +1.7304674e+01 </wgt>
<wgt id='52'> +1.7420512e+01 </wgt>
<wgt id='53'> +1.7899776e+01 </wgt>
<wgt id='54'> +1.7634367e+01 </wgt>
<wgt id='55'> +1.6505462e+01 </wgt>
<wgt id='56'> +1.7248058e+01 </wgt>
<wgt id='57'> +1.7323175e+01 </wgt>
<wgt id='58'> +1.8282397e+01 </wgt>
<wgt id='59'> +1.7083399e+01 </wgt>
<wgt id='60'> +1.6981521e+01 </wgt>
<wgt id='61'> +1.7988333e+01 </wgt>
<wgt id='62'> +1.7288858e+01 </wgt>
<wgt id='63'> +1.7625006e+01 </wgt>
<wgt id='64'> +1.7947542e+01 </wgt>
<wgt id='65'> +1.9292127e+01 </wgt>
<wgt id='66'> +1.7107989e+01 </wgt>
<wgt id='67'> +1.7655499e+01 </wgt>
<wgt id='68'> +1.8013406e+01 </wgt>
<wgt id='69'> +1.6407204e+01 </wgt>
<wgt id='70'> +1.7484020e+01 </wgt>
<wgt id='71'> +1.7775091e+01 </wgt>
<wgt id='72'> +1.8348656e+01 </wgt>
<wgt id='73'> +1.7751884e+01 </wgt>
<wgt id='74'> +1.7487210e+01 </wgt>
<wgt id='75'> +1.7663445e+01 </wgt>
<wgt id='76'> +1.7334885e+01 </wgt>
<wgt id='77'> +1.6877131e+01 </wgt>
<wgt id='78'> +1.8016678e+01 </wgt>
<wgt id='79'> +1.6886889e+01 </wgt>
<wgt id='80'> +1.7590726e+01 </wgt>
<wgt id='81'> +1.7550064e+01 </wgt>
<wgt id='82'> +1.8121749e+01 </wgt>
<wgt id='83'> +1.7324131e+01 </wgt>
<wgt id='84'> +1.8242411e+01 </wgt>
<wgt id='85'> +1.8158436e+01 </wgt>
<wgt id='86'> +1.7107543e+01 </wgt>
<wgt id='87'> +1.7420760e+01 </wgt>
<wgt id='88'> +1.7358023e+01 </wgt>
<wgt id='89'> +1.7728749e+01 </wgt>
<wgt id='90'> +1.7652476e+01 </wgt>
<wgt id='91'> +1.8456211e+01 </wgt>
<wgt id='92'> +1.7550333e+01 </wgt>
<wgt id='93'> +1.7128890e+01 </wgt>
<wgt id='94'> +1.7863471e+01 </wgt>
<wgt id='95'> +1.7348704e+01 </wgt>
<wgt id='96'> +1.7788372e+01 </wgt>
<wgt id='97'> +1.7983083e+01 </wgt>
<wgt id='98'> +1.6822091e+01 </wgt>
<wgt id='99'> +1.7488238e+01 </wgt>
<wgt id='100'> +1.8403047e+01 </wgt>
<wgt id='101'> +1.7370440e+01 </wgt>
<wgt id='102'> +1.6405796e+01 </wgt>
<wgt id='103'> +1.8269975e+01 </wgt>
<wgt id='104'> +1.7112770e+01 </wgt>
<wgt id='105'> +1.8496157e+01 </wgt>
<wgt id='106'> +1.7456855e+01 </wgt>
<wgt id='107'> +1.8302013e+01 </wgt>
<wgt id='108'> +1.7006191e+01 </wgt>
<wgt id='109'> +1.7369689e+01 </wgt>
<wgt id='110'> +1.7884292e+01 </wgt>
<wgt id='111'> +1.7468924e+01 </wgt>
<wgt id='112'> +1.7405832e+01 </wgt>
<wgt id='113'> +1.6989055e+01 </wgt>
<wgt id='114'> +1.8337111e+01 </wgt>
<wgt id='115'> +1.8068481e+01 </wgt>
<wgt id='116'> +1.6796147e+01 </wgt>
<wgt id='117'> +1.7881476e+01 </wgt>
<wgt id='118'> +1.7263069e+01 </wgt>
<wgt id='119'> +1.7407442e+01 </wgt>
<wgt id='120'> +1.7794279e+01 </wgt>
<wgt id='121'> +1.7615428e+01 </wgt>
<wgt id='122'> +1.7507625e+01 </wgt>
<wgt id='123'> +1.7381874e+01 </wgt>
<wgt id='124'> +1.7636130e+01 </wgt>
<wgt id='125'> +1.7824886e+01 </wgt>
<wgt id='126'> +1.7735896e+01 </wgt>
<wgt id='127'> +1.7688179e+01 </wgt>
<wgt id='128'> +1.6836251e+01 </wgt>
<wgt id='129'> +1.9001751e+01 </wgt>
<wgt id='130'> +1.7171717e+01 </wgt>
<wgt id='131'> +1.8478287e+01 </wgt>
<wgt id='132'> +1.7179216e+01 </wgt>
<wgt id='133'> +1.7002093e+01 </wgt>
<wgt id='134'> +1.6803414e+01 </wgt>
<wgt id='135'> +1.7914175e+01 </wgt>
<wgt id='136'> +1.6882049e+01 </wgt>
<wgt id='137'> +1.6455760e+01 </wgt>
<wgt id='138'> +1.5523243e+01 </wgt>
<wgt id='139'> +1.7651574e+01 </wgt>
<wgt id='140'> +1.8629238e+01 </wgt>
<wgt id='141'> +1.7281466e+01 </wgt>
<wgt id='142'> +1.8285147e+01 </wgt>
<wgt id='143'> +1.7346703e+01 </wgt>
<wgt id='144'> +1.8032823e+01 </wgt>
<wgt id='145'> +1.7487751e+01 </wgt>
</rwgt>
</event>
<event>
 3      1 +1.7556000e+01 1.25000000e+02 7.54677100e-03 1.23506900e-01
       21 -1    0    0  502  501 +0.0000000000e+00 +0.0000000000e+00 +2.4835672392e+02 2.4835672392e+02 0.0000000000e+00 0.0000e+00 1.0000e+00
       21 -1    0    0  501  502 -0.0000000000e+00 -0.0000000000e+00 -1.5728384311e+01 1.5728384311e+01 0.0000000000e+00 0.0000e+00 1.0000e+00
       25  1    1    2    0    0 +0.0000000000e+00 +0.0000000000e+00 +2.3262833961e+02 2.6408510823e+02 1.2500000000e+02 0.0000e+00 0.0000e+00
<mgrwt>
<rscale>  0 0.12500000E+03</rscale>
<asrwt>0</asrwt>
<pdfrwt beam="1">  1       21 0.38208724E-01 0.12500000E+03</pdfrwt>
<pdfrwt beam="2">  1       21 0.24197516E-02 0.12500000E+03</pdfrwt>
<totfact> 0.58576862E+06</totfact>
</mgrwt>
<rwgt>
<wgt id='1'> +1.6778715e+01 </wgt>
<wgt id='2'> +0.0000000e+00 </wgt>
<wgt id='3'> +1.6778715e+01 </wgt>
<wgt id='4'> +1.5620238e+01 </wgt>
<wgt id='5'> +1.6778715e+01 </wgt>
<wgt id='6'> +1.7556000e+01 </wgt>
<wgt id='7'> +0.0000000e+00 </wgt>
<wgt id='8'> +1.7556000e+01 </wgt>
<wgt id='9'> +1.6778715e+01 </wgt>
<wgt id='10'> +1.7556000e+01 </wgt>
<wgt id='11'> +1.7896070e+01 </wgt>
<wgt id='12'> +0.0000000e+00 </wgt>
<wgt id='13'> +1.7896070e+01 </wgt>
<wgt id='14'> +1.7556000e+01 </wgt>
<wgt id='15'> +1.7896070e+01 </wgt>
<wgt id='16'> +1.6778715e+01 </wgt>
<wgt id='17'> +0.0000000e+00 </wgt>
<wgt id='18'> +1.6778715e+01 </wgt>
<wgt id='19'> +1.5620238e+01 </wgt>
<wgt id='20'> +1.6778715e+01 </wgt>
<wgt id='21'> +0.0000000e+00 </wgt>
<wgt id='22'> +1.7556000e+01 </wgt>
<wgt id='23'> +1.6778715e+01 </wgt>
<wgt id='24'> +1.7556000e+01 </wgt>
<wgt id='25'> +1.7896070e+01 </wgt>
<wgt id='26'> +0.0000000e+00 </wgt>
<wgt id='27'> +1.7896070e+01 </wgt>
<wgt id='28'> +1.7556000e+01 </wgt>
<wgt id='29'> +1.7896070e+01 </wgt>
<wgt id='30'> +1.6778715e+01 </wgt>
<wgt id='31'> +0.0000000e+00 </wgt>
<wgt id='32'> +1.6778715e+01 </wgt>
<wgt id='33'> +1.5620238e+01 </wgt>
<wgt id='34'> +1.6778715e+01 </wgt>
<wgt id='35'> +1.7556000e+01 </wgt>
<wgt id='36'> +0.0000000e+00 </wgt>
<wgt id='37'> +1.7556000e+01 </wgt>
<wgt id='38'> +1.6778715e+01 </wgt>
<wgt id='39'> +1.7556000e+01 </wgt>
<wgt id='40'> +1.7896070e+01 </wgt>
<wgt id='41'> +0.0000000e+00 </wgt>
<wgt id='42'> +1.7896070e+01 </wgt>
<wgt id='43'> +1.7556000e+01 </wgt>
<wgt id='44'> +1.7896070e+01 </wgt>
<wgt id='45'> +1.7556000e+01 </wgt>
<wgt id='46'> +1.7268174e+01 </wgt>
<wgt id='47'> +1.7610964e+01 </wgt>
<wgt id='48'> +1.7370203e+01 </wgt>
<wgt id='49'> +1.7691535e+01 </wgt>
<wgt id='50'> +1.8448447e+01 </wgt>
<wgt id='51'> +1.7334821e+01 </wgt>
<wgt id='52'> +1.7480000e+01 </wgt>
<wgt id='53'> +1.7744727e+01 </wgt>
<wgt id='54'> +1.7618541e+01 </wgt>
<wgt id='55'> +1.6435004e+01 </wgt>
<wgt id='56'> +1.7107547e+01 </wgt>
<wgt id='57'> +1.7274326e+01 </wgt>
<wgt id='58'> +1.8178094e+01 </wgt>
<wgt id='59'> +1.7223774e+01 </wgt>
<wgt id='60'> +1.7216698e+01 </wgt>
<wgt id='61'> +1.7738263e+01 </wgt>
<wgt id='62'> +1.7363532e+01 </wgt>
<wgt id='63'> +1.7643768e+01 </wgt>
<wgt id='64'> +1.7825254e+01 </wgt>
<wgt id='65'> +1.9228464e+01 </wgt>
<wgt id='66'> +1.7117873e+01 </wgt>
<wgt id='67'> +1.7626793e+01 </wgt>
<wgt id='68'> +1.8121283e+01 </wgt>
<wgt id='69'> +1.6569108e+01 </wgt>
<wgt id='70'> +1.7421038e+01 </wgt>
<wgt id='71'> +1.7719258e+01 </wgt>
<wgt id='72'> +1.8013788e+01 </wgt>
<wgt id='73'> +1.7740417e+01 </wgt>
<wgt id='74'> +1.7658094e+01 </wgt>
<wgt id='75'> +1.7731007e+01 </wgt>
<wgt id='76'> +1.7238154e+01 </wgt>
<wgt id='77'> +1.7011990e+01 </wgt>
<wgt id='78'> +1.7867565e+01 </wgt>
<wgt id='79'> +1.7017310e+01 </wgt>
<wgt id='80'> +1.7513206e+01 </wgt>
<wgt id='81'> +1.7457221e+01 </wgt>
<wgt id='82'> +1.8056785e+01 </wgt>
<wgt id='83'> +1.7381754e+01 </wgt>
<wgt id='84'> +1.8261664e+01 </wgt>
<wgt id='85'> +1.8228353e+01 </wgt>
<wgt id='86'> +1.7207269e+01 </wgt>
<wgt id='87'> +1.7499722e+01 </wgt>
<wgt id='88'> +1.7362345e+01 </wgt>
<wgt id='89'> +1.7892123e+01 </wgt>
<wgt id='90'> +1.7733833e+01 </wgt>
<wgt id='91'> +1.8420329e+01 </wgt>
<wgt id='92'> +1.7155047e+01 </wgt>
<wgt id='93'> +1.7270530e+01 </wgt>
<wgt id='94'> +1.7759255e+01 </wgt>
<wgt id='95'> +1.7221051e+01 </wgt>
<wgt id='96'> +1.8010594e+01 </wgt>
<wgt id='97'> +1.7892152e+01 </wgt>
<wgt id='98'> +1.6825692e+01 </wgt>
<wgt id='99'> +1.7516709e+01 </wgt>
<wgt id='100'> +1.8173131e+01 </wgt>
<wgt id='101'> +1.7656747e+01 </wgt>
<wgt id='102'> +1.6661078e+01 </wgt>
<wgt id='103'> +1.8430850e+01 </wgt>
<wgt id='104'> +1.7152645e+01 </wgt>
<wgt id='105'> +1.8333931e+01 </wgt>
<wgt id='106'> +1.7154004e+01 </wgt>
<wgt id='107'> +1.8026420e+01 </wgt>
<wgt id='108'> +1.6707666e+01 </wgt>
<wgt id='109'> +1.7207632e+01 </wgt>
<wgt id='110'> +1.7871689e+01 </wgt>
<wgt id='111'> +1.7340778e+01 </wgt>
<wgt id='112'> +1.7249036e+01 </wgt>
<wgt id='113'> +1.6871048e+01 </wgt>
<wgt id='114'> +1.8037891e+01 </wgt>
<wgt id='115'> +1.7767102e+01 </wgt>
<wgt id='116'> +1.7026828e+01 </wgt>
<wgt id='117'> +1.7791657e+01 </wgt>
<wgt id='118'> +1.7502668e+01 </wgt>
<wgt id='119'> +1.7307384e+01 </wgt>
<wgt id='120'> +1.7619688e+01 </wgt>
<wgt id='121'> +1.7539630e+01 </wgt>
<wgt id='122'> +1.7472887e+01 </wgt>
<wgt id='123'> +1.7446473e+01 </wgt>
<wgt id='124'> +1.7860435e+01 </wgt>
<wgt id='125'> +1.8027021e+01 </wgt>
<wgt id='126'> +1.7858024e+01 </wgt>
<wgt id='127'> +1.7805867e+01 </wgt>
<wgt id='128'> +1.6669324e+01 </wgt>
<wgt id='129'> +1.9036596e+01 </wgt>
<wgt id='130'> +1.7184046e+01 </wgt>
<wgt id='131'> +1.8478651e+01 </wgt>
<wgt id='132'> +1.7303586e+01 </wgt>
<wgt id='133'> +1.7183400e+01 </wgt>
<wgt id='134'> +1.6811856e+01 </wgt>
<wgt id='135'> +1.7941159e+01 </wgt>
<wgt id='136'> +1.6968269e+01 </wgt>
<wgt id='137'> +1.6505405e+01 </wgt>
<wgt id='138'> +1.5732007e+01 </wgt>
<wgt id='139'> +1.7783311e+01 </wgt>
<wgt id='140'> +1.8536177e+01 </wgt>
<wgt id='141'> +1.7285784e+01 </wgt>
<wgt id='142'> +1.8141450e+01 </wgt>
<wgt id='143'> +1.7412017e+01 </wgt>
<wgt id='144'> +1.7904791e+01 </wgt>
<wgt id='145'> +1.7474023e+01 </wgt>
</rwgt>
</event>
<event>
 3      1 +1.7556000e+01 1.25000000e+02 7.54677100e-03 1.23506900e-01
       21 -1    0    0  502  501 +0.0000000000e+00 +0.0000000000e+00 +5.6647503519e+01 5.6647503519e+01 0.0000000000e+00 0.0000e+00 1.0000e+00
       21 -1    0    0  501  502 -0.0000000000e+00 -0.0000000000e+00 -6.8957142986e+01 6.8957142986e+01 0.0000000000e+00 0.0000e+00 1.0000e+00
       25  1    1    2    0    0 +0.0000000000e+00 +0.0000000000e+00 -1.2309639467e+01 1.2560464651e+02 1.2500000000e+02 0.0000e+00 0.0000e+00
<mgrwt>
<rscale>  0 0.12500000E+03</rscale>
<asrwt>0</asrwt>
<pdfrwt beam="1">  1       21 0.87150006E-02 0.12500000E+03</pdfrwt>
<pdfrwt beam="2">  1       21 0.10608791E-01 0.12500000E+03</pdfrwt>
<totfact> 0.73960795E+06</totfact>
</mgrwt>
<rwgt>
<wgt id='1'> +1.6646723e+01 </wgt>
<wgt id='2'> +0.0000000e+00 </wgt>
<wgt id='3'> +1.6646723e+01 </wgt>
<wgt id='4'> +1.5354937e+01 </wgt>
<wgt id='5'> +1.6646723e+01 </wgt>
<wgt id='6'> +1.7556000e+01 </wgt>
<wgt id='7'> +0.0000000e+00 </wgt>
<wgt id='8'> +1.7556000e+01 </wgt>
<wgt id='9'> +1.6646723e+01 </wgt>
<wgt id='10'> +1.7556000e+01 </wgt>
<wgt id='11'> +1.8019841e+01 </wgt>
<wgt id='12'> +0.0000000e+00 </wgt>
<wgt id='13'> +1.8019841e+01 </wgt>
<wgt id='14'> +1.7556000e+01 </wgt>
<wgt id='15'> +1.8019841e+01 </wgt>
<wgt id='16'> +1.6646723e+01 </wgt>
<wgt id='17'> +0.0000000e+00 </wgt>
<wgt id='18'> +1.6646723e+01 </wgt>
<wgt id='19'> +1.5354937e+01 </wgt>
<wgt id='20'> +1.6646723e+01 </wgt>
<wgt id='21'> +0.0000000e+00 </wgt>
<wgt id='22'> +1.7556000e+01 </wgt>
<wgt id='23'> +1.6646723e+01 </wgt>
<wgt id='24'> +1.7556000e+01 </wgt>
<wgt id='25'> +1.8019841e+01 </wgt>
<wgt id='26'> +0.0000000e+00 </wgt>
<wgt id='27'> +1.8019841e+01 </wgt>
<wgt id='28'> +1.7556000e+01 </wgt>
<wgt id='29'> +1.8019841e+01 </wgt>
<wgt id='30'> +1.6646723e+01 </wgt>
<wgt id='31'> +0.0000000e+00 </wgt>
<wgt id='32'> +1.6646723e+01 </wgt>
<wgt id='33'> +1.5354937e+01 </wgt>
<wgt id='34'> +1.6646723e+01 </wgt>
<wgt id='35'> +1.7556000e+01 </wgt>
<wgt id='36'> +0.0000000e+00 </wgt>
<wgt id='37'> +1.7556000e+01 </wgt>
<wgt id='38'> +1.6646723e+01 </wgt>
<wgt id='39'> +1.7556000e+01 </wgt>
<wgt id='40'> +1.8019841e+01 </wgt>
<wgt id='41'> +0.0000000e+00 </wgt>
<wgt id='42'> +1.8019841e+01 </wgt>
<wgt id='43'> +1.7556000e+01 </wgt>
<wgt id='44'> +1.8019841e+01 </wgt>
<wgt id='45'> +1.7556000e+01 </wgt>
<wgt id='46'> +1.6960301e+01 </wgt>
<wgt id='47'> +1.7487595e+01 </wgt>
<wgt id='48'> +1.7129775e+01 </wgt>
<wgt id='49'> +1.7558252e+01 </wgt>
<wgt id='50'> +1.7834742e+01 </wgt>
<wgt id='51'> +1.7271317e+01 </wgt>
<wgt id='52'> +1.7394093e+01 </wgt>
<wgt id='53'> +1.8023987e+01 </wgt>
<wgt id='54'> +1.7641527e+01 </wgt>
<wgt id='55'> +1.6650336e+01 </wgt>
<wgt id='56'> +1.7366377e+01 </wgt>
<wgt id='57'> +1.7418733e+01 </wgt>
<wgt id='58'> +1.8368850e+01 </wgt>
<wgt id='59'> +1.7012411e+01 </wgt>
<wgt id='60'> +1.6789827e+01 </wgt>
<wgt id='61'> +1.8147874e+01 </wgt>
<wgt id='62'> +1.7206250e+01 </wgt>
<wgt id='63'> +1.7597684e+01 </wgt>
<wgt id='64'> +1.8033221e+01 </wgt>
<wgt id='65'> +1.9311398e+01 </wgt>
<wgt id='66'> +1.7101804e+01 </wgt>
<wgt id='67'> +1.7685571e+01 </wgt>
<wgt id='68'> +1.7917736e+01 </wgt>
<wgt id='69'> +1.6249550e+01 </wgt>
<wgt id='70'> +1.7551569e+01 </wgt>
<wgt id='71'> +1.7852208e+01 </wgt>
<wgt id='72'> +1.8727577e+01 </wgt>
<wgt id='73'> +1.7749928e+01 </wgt>
<wgt id='74'> +1.7327442e+01 </wgt>
<wgt id='75'> +1.7587989e+01 </wgt>
<wgt id='76'> +1.7477918e+01 </wgt>
<wgt id='77'> +1.6765965e+01 </wgt>
<wgt id='78'> +1.8121489e+01 </wgt>
<wgt id='79'> +1.6781774e+01 </wgt>
<wgt id='80'> +1.7667989e+01 </wgt>
<wgt id='81'> +1.7647559e+01 </wgt>
<wgt id='82'> +1.8139502e+01 </wgt>
<wgt id='83'> +1.7251735e+01 </wgt>
<wgt id='84'> +1.8193889e+01 </wgt>
<wgt id='85'> +1.8032574e+01 </wgt>
<wgt id='86'> +1.7007655e+01 </wgt>
<wgt id='87'> +1.7346607e+01 </wgt>
<wgt id='88'> +1.7338638e+01 </wgt>
<wgt id='89'> +1.7559711e+01 </wgt>
<wgt id='90'> +1.7596279e+01 </wgt>
<wgt id='91'> +1.8454458e+01 </wgt>
<wgt id='92'> +1.8047149e+01 </wgt>
<wgt id='93'> +1.6989017e+01 </wgt>
<wgt id='94'> +1.7975743e+01 </wgt>
<wgt id='95'> +1.7520679e+01 </wgt>
<wgt id='96'> +1.7537241e+01 </wgt>
<wgt id='97'> +1.8063997e+01 </wgt>
<wgt id='98'> +1.6858905e+01 </wgt>
<wgt id='99'> +1.7436268e+01 </wgt>
<wgt id='100'> +1.8596517e+01 </wgt>
<wgt id='101'> +1.7124385e+01 </wgt>
<wgt id='102'> +1.6198549e+01 </wgt>
<wgt id='103'> +1.8093359e+01 </wgt>
<wgt id='104'> +1.7070737e+01 </wgt>
<wgt id='105'> +1.8666552e+01 </wgt>
<wgt id='106'> +1.7780541e+01 </wgt>
<wgt id='107'> +1.8554363e+01 </wgt>
<wgt id='108'> +1.7310168e+01 </wgt>
<wgt id='109'> +1.7536492e+01 </wgt>
<wgt id='110'> +1.7893081e+01 </wgt>
<wgt id='111'> +1.7610556e+01 </wgt>
<wgt id='112'> +1.7542926e+01 </wgt>
<wgt id='113'> +1.7118593e+01 </wgt>
<wgt id='114'> +1.8595405e+01 </wgt>
<wgt id='115'> +1.8275887e+01 </wgt>
<wgt id='116'> +1.6577751e+01 </wgt>
<wgt id='117'> +1.7927968e+01 </wgt>
<wgt id='118'> +1.7035696e+01 </wgt>
<wgt id='119'> +1.7525017e+01 </wgt>
<wgt id='120'> +1.7871601e+01 </wgt>
<wgt id='121'> +1.7707500e+01 </wgt>
<wgt id='122'> +1.7546062e+01 </wgt>
<wgt id='123'> +1.7297304e+01 </wgt>
<wgt id='124'> +1.7438707e+01 </wgt>
<wgt id='125'> +1.7645579e+01 </wgt>
<wgt id='126'> +1.7541997e+01 </wgt>
<wgt id='127'> +1.7561925e+01 </wgt>
<wgt id='128'> +1.6978307e+01 </wgt>
<wgt id='129'> +1.8962360e+01 </wgt>
<wgt id='130'> +1.7135415e+01 </wgt>
<wgt id='131'> +1.8449436e+01 </wgt>
<wgt id='132'> +1.7147262e+01 </wgt>
<wgt id='133'> +1.6844809e+01 </wgt>
<wgt id='134'> +1.6842849e+01 </wgt>
<wgt id='135'> +1.7878611e+01 </wgt>
<wgt id='136'> +1.6881050e+01 </wgt>
<wgt id='137'> +1.6417364e+01 </wgt>
<wgt id='138'> +1.5324999e+01 </wgt>
<wgt id='139'> +1.7522506e+01 </wgt>
<wgt id='140'> +1.8683601e+01 </wgt>
<wgt id='141'> +1.7283151e+01 </wgt>
<wgt id='142'> +1.8374368e+01 </wgt>
<wgt id='143'> +1.7333451e+01 </wgt>
<wgt id='144'> +1.8172477e+01 </wgt>
<wgt id='145'> +1.7513876e+01 </wgt>
</rwgt>
</event>
<event>
 3      1 +1.7556000e+01 1.25000000e+02 7.54677100e-03 1.23506900e-01
       21 -1    0    0  502  501 +0.0000000000e+00 +0.0000000000e+00 +2.3764809723e+02 2.3764809723e+02 0.0000000000e+00 0.0000e+00 -1.0000e+00
       21 -1    0    0  501  502 -0.0000000000e+00 -0.0000000000e+00 -1.6437118771e+01 1.6437118771e+01 0.0000000000e+00 0.0000e+00 -1.0000e+00
       25  1    1    2    0    0 +0.0000000000e+00 +0.0000000000e+00 +2.2121097846e+02 2.5408521601e+02 1.2500000000e+02 0.0000e+00 0.0000e+00
<mgrwt>
<rscale>  0 0.12500000E+03</rscale>
<asrwt>0</asrwt>
<pdfrwt beam="1">  1       21 0.36561243E-01 0.12500000E+03</pdfrwt>
<pdfrwt beam="2">  1       21 0.25287877E-02 0.12500000E+03</pdfrwt>
<totfact> 0.59495691E+06</totfact>
</mgrwt>
<rwgt>
<wgt id='1'> +1.6769695e+01 </wgt>
<wgt id='2'> +0.0000000e+00 </wgt>
<wgt id='3'> +1.6769695e+01 </wgt>
<wgt id='4'> +1.5602186e+01 </wgt>
<wgt id='5'> +1.6769695e+01 </wgt>
<wgt id='6'> +1.7556000e+01 </wgt>
<wgt id='7'> +0.0000000e+00 </wgt>
<wgt id='8'> +1.7556000e+01 </wgt>
<wgt id='9'> +1.6769695e+01 </wgt>
<wgt id='10'> +1.7556000e+01 </wgt>
<wgt id='11'> +1.7904584e+01 </wgt>
<wgt id='12'> +0.0000000e+00 </wgt>
<wgt id='13'> +1.7904584e+01 </wgt>
<wgt id='14'> +1.7556000e+01 </wgt>
<wgt id='15'> +1.7904584e+01 </wgt>
<wgt id='16'> +1.6769695e+01 </wgt>
<wgt id='17'> +0.0000000e+00 </wgt>
<wgt id='18'> +1.6769695e+01 </wgt>
<wgt id='19'> +1.5602186e+01 </wgt>
<wgt id='20'> +1.6769695e+01 </wgt>
<wgt id='21'> +0.0000000e+00 </wgt>
<wgt id='22'> +1.7556000e+01 </wgt>
<wgt id='23'> +1.6769695e+01 </wgt>
<wgt id='24'> +1.7556000e+01 </wgt>
<wgt id='25'> +1.7904584e+01 </wgt>
<wgt id='26'> +0.0000000e+00 </wgt>
<wgt id='27'> +1.7904584e+01 </wgt>
<wgt id='28'> +1.7556000e+01 </wgt>
<wgt id='29'> +1.7904584e+01 </wgt>
<wgt id='30'> +1.6769695e+01 </wgt>
<wgt id='31'> +0.0000000e+00 </wgt>
<wgt id='32'> +1.6769695e+01 </wgt>
<wgt id='33'> +1.5602186e+01 </wgt>
<wgt id='34'> +1.6769695e+01 </wgt>
<wgt id='35'> +1.7556000e+01 </wgt>
<wgt id='36'> +0.0000000e+00 </wgt>
<wgt id='37'> +1.7556000e+01 </wgt>
<wgt id='38'> +1.6769695e+01 </wgt>
<wgt id='39'> +1.7556000e+01 </wgt>
<wgt id='40'> +1.7904584e+01 </wgt>
<wgt id='41'> +0.0000000e+00 </wgt>
<wgt id='42'> +1.7904584e+01 </wgt>
<wgt id='43'> +1.7556000e+01 </wgt>
<wgt id='44'> +1.7904584e+01 </wgt>
<wgt id='45'> +1.7556000e+01 </wgt>
<wgt id='46'> +1.7246942e+01 </wgt>
<wgt id='47'> +1.7604570e+01 </wgt>
<wgt id='48'> +1.7355354e+01 </wgt>
<wgt id='49'> +1.7685403e+01 </wgt>
<wgt id='50'> +1.8409411e+01 </wgt>
<wgt id='51'> +1.7331395e+01 </wgt>
<wgt id='52'> +1.7471371e+01 </wgt>
<wgt id='53'> +1.7765984e+01 </wgt>
<wgt id='54'> +1.7620408e+01 </wgt>
<wgt id='55'> +1.6439513e+01 </wgt>
<wgt id='56'> +1.7126856e+01 </wgt>
<wgt id='57'> +1.7277721e+01 </wgt>
<wgt id='58'> +1.8192848e+01 </wgt>
<wgt id='59'> +1.7202042e+01 </wgt>
<wgt id='60'> +1.7184529e+01 </wgt>
<wgt id='61'> +1.7776308e+01 </wgt>
<wgt id='62'> +1.7354656e+01 </wgt>
<wgt id='63'> +1.7641714e+01 </wgt>
<wgt id='64'> +1.7842147e+01 </wgt>
<wgt id='65'> +1.9239457e+01 </wgt>
<wgt id='66'> +1.7116410e+01 </wgt>
<wgt id='67'> +1.7630532e+01 </wgt>
<wgt id='68'> +1.8106321e+01 </wgt>
<wgt id='69'> +1.6547854e+01 </wgt>
<wgt id='70'> +1.7428844e+01 </wgt>
<wgt id='71'> +1.7725879e+01 </wgt>
<wgt id='72'> +1.8054525e+01 </wgt>
<wgt id='73'> +1.7743043e+01 </wgt>
<wgt id='74'> +1.7635365e+01 </wgt>
<wgt id='75'> +1.7722757e+01 </wgt>
<wgt id='76'> +1.7248177e+01 </wgt>
<wgt id='77'> +1.6993729e+01 </wgt>
<wgt id='78'> +1.7889263e+01 </wgt>
<wgt id='79'> +1.6999211e+01 </wgt>
<wgt id='80'> +1.7523702e+01 </wgt>
<wgt id='81'> +1.7468879e+01 </wgt>
<wgt id='82'> +1.8068105e+01 </wgt>
<wgt id='83'> +1.7375272e+01 </wgt>
<wgt id='84'> +1.8260880e+01 </wgt>
<wgt id='85'> +1.8222595e+01 </wgt>
<wgt id='86'> +1.7194409e+01 </wgt>
<wgt id='87'> +1.7489424e+01 </wgt>
<wgt id='88'> +1.7362767e+01 </wgt>
<wgt id='89'> +1.7872134e+01 </wgt>
<wgt id='90'> +1.7722367e+01 </wgt>
<wgt id='91'> +1.8427394e+01 </wgt>
<wgt id='92'> +1.7201651e+01 </wgt>
<wgt id='93'> +1.7252310e+01 </wgt>
<wgt id='94'> +1.7772965e+01 </wgt>
<wgt id='95'> +1.7234370e+01 </wgt>
<wgt id='96'> +1.7984103e+01 </wgt>
<wgt id='97'> +1.7904786e+01 </wgt>
<wgt id='98'> +1.6823033e+01 </wgt>
<wgt id='99'> +1.7514822e+01 </wgt>
<wgt id='100'> +1.8205442e+01 </wgt>
<wgt id='101'> +1.7617637e+01 </wgt>
<wgt id='102'> +1.6625452e+01 </wgt>
<wgt id='103'> +1.8411453e+01 </wgt>
<wgt id='104'> +1.7147370e+01 </wgt>
<wgt id='105'> +1.8354164e+01 </wgt>
<wgt id='106'> +1.7191559e+01 </wgt>
<wgt id='107'> +1.8063041e+01 </wgt>
<wgt id='108'> +1.6745513e+01 </wgt>
<wgt id='109'> +1.7227706e+01 </wgt>
<wgt id='110'> +1.7873833e+01 </wgt>
<wgt id='111'> +1.7356311e+01 </wgt>
<wgt id='112'> +1.7269852e+01 </wgt>
<wgt id='113'> +1.6885189e+01 </wgt>
<wgt id='114'> +1.8076960e+01 </wgt>
<wgt id='115'> +1.7809287e+01 </wgt>
<wgt id='116'> +1.6996252e+01 </wgt>
<wgt id='117'> +1.7805056e+01 </wgt>
<wgt id='118'> +1.7471303e+01 </wgt>
<wgt id='119'> +1.7318851e+01 </wgt>
<wgt id='120'> +1.7645222e+01 </wgt>
<wgt id='121'> +1.7548245e+01 </wgt>
<wgt id='122'> +1.7476892e+01 </wgt>
<wgt id='123'> +1.7439156e+01 </wgt>
<wgt id='124'> +1.7830025e+01 </wgt>
<wgt id='125'> +1.7999328e+01 </wgt>
<wgt id='126'> +1.7844839e+01 </wgt>
<wgt id='127'> +1.7791487e+01 </wgt>
<wgt id='128'> +1.6691884e+01 </wgt>
<wgt id='129'> +1.9032703e+01 </wgt>
<wgt id='130'> +1.7184039e+01 </wgt>
<wgt id='131'> +1.8480564e+01 </wgt>
<wgt id='132'> +1.7282734e+01 </wgt>
<wgt id='133'> +1.7158651e+01 </wgt>
<wgt id='134'> +1.6808187e+01 </wgt>
<wgt id='135'> +1.7938500e+01 </wgt>
<wgt id='136'> +1.6951868e+01 </wgt>
<wgt id='137'> +1.6498295e+01 </wgt>
<wgt id='138'> +1.5704426e+01 </wgt>
<wgt id='139'> +1.7766341e+01 </wgt>
<wgt id='140'> +1.8550278e+01 </wgt>
<wgt id='141'> +1.7284487e+01 </wgt>
<wgt id='142'> +1.8163745e+01 </wgt>
<wgt id='143'> +1.7401198e+01 </wgt>
<wgt id='144'> +1.7921334e+01 </wgt>
<wgt id='145'> +1.7475537e+01 </wgt>
</rwgt>
</event>
<event>
 3      1 +1.7556000e+01 1.25000000e+02 7.54677100e-03 1.23506900e-01
       21 -1    0    0  502  501 +0.0000000000e+00 +0.0000000000e+00 +4.9334664631e+02 4.9334664631e+02 0.0000000000e+00 0.0000e+00 -1.0000e+00
       21 -1    0    0  501  502 -0.0000000000e+00 -0.0000000000e+00 -7.9178606548e+00 7.9178606548e+00 0.0000000000e+00 0.0000e+00 -1.0000e+00
       25  1    1    2    0    0 +0.0000000000e+00 +0.0000000000e+00 +4.8542878566e+02 5.0126450697e+02 1.2500000000e+02 0.0000e+00 0.0000e+00
<mgrwt>
<rscale>  0 0.12500000E+03</rscale>
<asrwt>0</asrwt>
<pdfrwt beam="1">  1       21 0.75899460E-01 0.12500000E+03</pdfrwt>
<pdfrwt beam="2">  1       21 0.12181328E-02 0.12500000E+03</pdfrwt>
<totfact> 0.41975585E+06</totfact>
</mgrwt>
<rwgt>
<wgt id='1'> +1.6962632e+01 </wgt>
<wgt id='2'> +0.0000000e+00 </wgt>
<wgt id='3'> +1.6962632e+01 </wgt>
<wgt id='4'> +1.5986951e+01 </wgt>
<wgt id='5'> +1.6962632e+01 </wgt>
<wgt id='6'> +1.7556000e+01 </wgt>
<wgt id='7'> +0.0000000e+00 </wgt>
<wgt id='8'> +1.7556000e+01 </wgt>
<wgt id='9'> +1.6962632e+01 </wgt>
<wgt id='10'> +1.7556000e+01 </wgt>
<wgt id='11'> +1.7721759e+01 </wgt>
<wgt id='12'> +0.0000000e+00 </wgt>
<wgt id='13'> +1.7721759e+01 </wgt>
<wgt id='14'> +1.7556000e+01 </wgt>
<wgt id='15'> +1.7721759e+01 </wgt>
<wgt id='16'> +1.6962632e+01 </wgt>
<wgt id='17'> +0.0000000e+00 </wgt>
<wgt id='18'> +1.6962632e+01 </wgt>
<wgt id='19'> +1.5986951e+01 </wgt>
<wgt id='20'> +1.6962632e+01 </wgt>
<wgt id='21'> +0.0000000e+00 </wgt>
<wgt id='22'> +1.7556000e+01 </wgt>
<wgt id='23'> +1.6962632e+01 </wgt>
<wgt id='24'> +1.7556000e+01 </wgt>
<wgt id='25'> +1.7721759e+01 </wgt>
<wgt id='26'> +0.0000000e+00 </wgt>
<wgt id='27'> +1.7721759e+01 </wgt>
<wgt id='28'> +1.7556000e+01 </wgt>
<wgt id='29'> +1.7721759e+01 </wgt>
<wgt id='30'> +1.6962632e+01 </wgt>
<wgt id='31'> +0.0000000e+00 </wgt>
<wgt id='32'> +1.6962632e+01 </wgt>
<wgt id='33'> +1.5986951e+01 </wgt>
<wgt id='34'> +1.6962632e+01 </wgt>
<wgt id='35'> +1.7556000e+01 </wgt>
<wgt id='36'> +0.0000000e+00 </wgt>
<wgt id='37'> +1.7556000e+01 </wgt>
<wgt id='38'> +1.6962632e+01 </wgt>
<wgt id='39'> +1.7556000e+01 </wgt>
<wgt id='40'> +1.7721759e+01 </wgt>
<wgt id='41'> +0.0000000e+00 </wgt>
<wgt id='42'> +1.7721759e+01 </wgt>
<wgt id='43'> +1.7556000e+01 </wgt>
<wgt id='44'> +1.7721759e+01 </wgt>
<wgt id='45'> +1.7556000e+01 </wgt>
<wgt id='46'> +1.7703391e+01 </wgt>
<wgt id='47'> +1.7656345e+01 </wgt>
<wgt id='48'> +1.7622113e+01 </wgt>
<wgt id='49'> +1.7698009e+01 </wgt>
<wgt id='50'> +1.9135915e+01 </wgt>
<wgt id='51'> +1.7348039e+01 </wgt>
<wgt id='52'> +1.7660587e+01 </wgt>
<wgt id='53'> +1.7282735e+01 </wgt>
<wgt id='54'> +1.7650956e+01 </wgt>
<wgt id='55'> +1.6750040e+01 </wgt>
<wgt id='56'> +1.6692625e+01 </wgt>
<wgt id='57'> +1.7448307e+01 </wgt>
<wgt id='58'> +1.7772864e+01 </wgt>
<wgt id='59'> +1.7887841e+01 </wgt>
<wgt id='60'> +1.7933400e+01 </wgt>
<wgt id='61'> +1.6398910e+01 </wgt>
<wgt id='62'> +1.7457287e+01 </wgt>
<wgt id='63'> +1.7679873e+01 </wgt>
<wgt id='64'> +1.7521710e+01 </wgt>
<wgt id='65'> +1.8772807e+01 </wgt>
<wgt id='66'> +1.7156310e+01 </wgt>
<wgt id='67'> +1.7531461e+01 </wgt>
<wgt id='68'> +1.8489252e+01 </wgt>
<wgt id='69'> +1.7025204e+01 </wgt>
<wgt id='70'> +1.7313790e+01 </wgt>
<wgt id='71'> +1.7564207e+01 </wgt>
<wgt id='72'> +1.7408798e+01 </wgt>
<wgt id='73'> +1.7585987e+01 </wgt>
<wgt id='74'> +1.8160230e+01 </wgt>
<wgt id='75'> +1.7888636e+01 </wgt>
<wgt id='76'> +1.7226959e+01 </wgt>
<wgt id='77'> +1.7394572e+01 </wgt>
<wgt id='78'> +1.7272886e+01 </wgt>
<wgt id='79'> +1.7475950e+01 </wgt>
<wgt id='80'> +1.7227121e+01 </wgt>
<wgt id='81'> +1.7263730e+01 </wgt>
<wgt id='82'> +1.7586636e+01 </wgt>
<wgt id='83'> +1.7417824e+01 </wgt>
<wgt id='84'> +1.8095800e+01 </wgt>
<wgt id='85'> +1.8082250e+01 </wgt>
<wgt id='86'> +1.7460790e+01 </wgt>
<wgt id='87'> +1.7695283e+01 </wgt>
<wgt id='88'> +1.7243922e+01 </wgt>
<wgt id='89'> +1.8131069e+01 </wgt>
<wgt id='90'> +1.7970762e+01 </wgt>
<wgt id='91'> +1.8043665e+01 </wgt>
<wgt id='92'> +1.6523355e+01 </wgt>
<wgt id='93'> +1.7619143e+01 </wgt>
<wgt id='94'> +1.7434928e+01 </wgt>
<wgt id='95'> +1.7251092e+01 </wgt>
<wgt id='96'> +1.8307923e+01 </wgt>
<wgt id='97'> +1.7554003e+01 </wgt>
<wgt id='98'> +1.7047838e+01 </wgt>
<wgt id='99'> +1.7392953e+01 </wgt>
<wgt id='100'> +1.7299471e+01 </wgt>
<wgt id='101'> +1.8548649e+01 </wgt>
<wgt id='102'> +1.7556134e+01 </wgt>
<wgt id='103'> +1.8635306e+01 </wgt>
<wgt id='104'> +1.7281863e+01 </wgt>
<wgt id='105'> +1.7995115e+01 </wgt>
<wgt id='106'> +1.6598391e+01 </wgt>
<wgt id='107'> +1.7277181e+01 </wgt>
<wgt id='108'> +1.6088209e+01 </wgt>
<wgt id='109'> +1.6959412e+01 </wgt>
<wgt id='110'> +1.7766704e+01 </wgt>
<wgt id='111'> +1.7135795e+01 </wgt>
<wgt id='112'> +1.6891234e+01 </wgt>
<wgt id='113'> +1.6760088e+01 </wgt>
<wgt id='114'> +1.7395032e+01 </wgt>
<wgt id='115'> +1.6860104e+01 </wgt>
<wgt id='116'> +1.7684758e+01 </wgt>
<wgt id='117'> +1.7449868e+01 </wgt>
<wgt id='118'> +1.8123572e+01 </wgt>
<wgt id='119'> +1.7256590e+01 </wgt>
<wgt id='120'> +1.7143460e+01 </wgt>
<wgt id='121'> +1.7499590e+01 </wgt>
<wgt id='122'> +1.7452626e+01 </wgt>
<wgt id='123'> +1.7512867e+01 </wgt>
<wgt id='124'> +1.8525347e+01 </wgt>
<wgt id='125'> +1.8703074e+01 </wgt>
<wgt id='126'> +1.7967820e+01 </wgt>
<wgt id='127'> +1.7991464e+01 </wgt>
<wgt id='128'> +1.6218133e+01 </wgt>
<wgt id='129'> +1.8999430e+01 </wgt>
<wgt id='130'> +1.7023058e+01 </wgt>
<wgt id='131'> +1.8237097e+01 </wgt>
<wgt id='132'> +1.8011811e+01 </wgt>
<wgt id='133'> +1.7774555e+01 </wgt>
<wgt id='134'> +1.7073347e+01 </wgt>
<wgt id='135'> +1.7905050e+01 </wgt>
<wgt id='136'> +1.7724091e+01 </wgt>
<wgt id='137'> +1.6717257e+01 </wgt>
<wgt id='138'> +1.6351843e+01 </wgt>
<wgt id='139'> +1.8102037e+01 </wgt>
<wgt id='140'> +1.8119200e+01 </wgt>
<wgt id='141'> +1.7396228e+01 </wgt>
<wgt id='142'> +1.7349913e+01 </wgt>
<wgt id='143'> +1.7743957e+01 </wgt>
<wgt id='144'> +1.7531639e+01 </wgt>
<wgt id='145'> +1.7399868e+01 </wgt>
</rwgt>
</event>
<event>
 3      1 +1.7556000e+01 1.25000000e+02 7.54677100e-03 1.23506900e-01
       21 -1    0    0  502  501 +0.0000000000e+00 +0.0000000000e+00 +5.1842601764e+01 5.1842601764e+01 0.0000000000e+00 0.0000e+00 1.0000e+00
       21 -1    0    0  501  502 -0.0000000000e+00 -0.0000000000e+00 -7.5348263148e+01 7.5348263148e+01 0.0000000000e+00 0.0000e+00 1.0000e+00
       25  1    1    2    0    0 +0.0000000000e+00 +0.0000000000e+00 -2.3505661383e+01 1.2719086491e+02 1.2500000000e+02 0.0000e+00 0.0000e+00
<mgrwt>
<rscale>  0 0.12500000E+03</rscale>
<asrwt>0</asrwt>
<pdfrwt beam="1">  1       21 0.79757849E-02 0.12500000E+03</pdfrwt>
<pdfrwt beam="2">  1       21 0.11592040E-01 0.12500000E+03</pdfrwt>
<totfact> 0.73743176E+06</totfact>
</mgrwt>
<rwgt>
<wgt id='1'> +1.6647822e+01 </wgt>
<wgt id='2'> +0.0000000e+00 </wgt>
<wgt id='3'> +1.6647822e+01 </wgt>
<wgt id='4'> +1.5357233e+01 </wgt>
<wgt id='5'> +1.6647822e+01 </wgt>
<wgt id='6'> +1.7556000e+01 </wgt>
<wgt id='7'> +0.0000000e+00 </wgt>
<wgt id='8'> +1.7556000e+01 </wgt>
<wgt id='9'> +1.6647822e+01 </wgt>
<wgt id='10'> +1.7556000e+01 </wgt>
<wgt id='11'> +1.8018878e+01 </wgt>
<wgt id='12'> +0.0000000e+00 </wgt>
<wgt id='13'> +1.8018878e+01 </wgt>
<wgt id='14'> +1.7556000e+01 </wgt>
<wgt id='15'> +1.8018878e+01 </wgt>
<wgt id='16'> +1.6647822e+01 </wgt>
<wgt id='17'> +0.0000000e+00 </wgt>
<wgt id='18'> +1.6647822e+01 </wgt>
<wgt id='19'> +1.5357233e+01 </wgt>
<wgt id='20'> +1.6647822e+01 </wgt>
<wgt id='21'> +0.0000000e+00 </wgt>
<wgt id='22'> +1.7556000e+01 </wgt>
<wgt id='23'> +1.6647822e+01 </wgt>
<wgt id='24'> +1.7556000e+01 </wgt>
<wgt id='25'> +1.8018878e+01 </wgt>
<wgt id='26'> +0.0000000e+00 </wgt>
<wgt id='27'> +1.8018878e+01 </wgt>
<wgt id='28'> +1.7556000e+01 </wgt>
<wgt id='29'> +1.8018878e+01 </wgt>
<wgt id='30'> +1.6647822e+01 </wgt>
<wgt id='31'> +0.0000000e+00 </wgt>
<wgt id='32'> +1.6647822e+01 </wgt>
<wgt id='33'> +1.5357233e+01 </wgt>
<wgt id='34'> +1.6647822e+01 </wgt>
<wgt id='35'> +1.7556000e+01 </wgt>
<wgt id='36'> +0.0000000e+00 </wgt>
<wgt id='37'> +1.7556000e+01 </wgt>
<wgt id='38'> +1.6647822e+01 </wgt>
<wgt id='39'> +1.7556000e+01 </wgt>
<wgt id='40'> +1.8018878e+01 </wgt>
<wgt id='41'> +0.0000000e+00 </wgt>
<wgt id='42'> +1.8018878e+01 </wgt>
<wgt id='43'> +1.7556000e+01 </wgt>
<wgt id='44'> +1.8018878e+01 </wgt>
<wgt id='45'> +1.7556000e+01 </wgt>
<wgt id='46'> +1.6964050e+01 </wgt>
<wgt id='47'> +1.7489292e+01 </wgt>
<wgt id='48'> +1.7133071e+01 </wgt>
<wgt id='49'> +1.7560591e+01 </wgt>
<wgt id='50'> +1.7842360e+01 </wgt>
<wgt id='51'> +1.7272285e+01 </wgt>
<wgt id='52'> +1.7394063e+01 </wgt>
<wgt id='53'> +1.8021041e+01 </wgt>
<wgt id='54'> +1.7641577e+01 </wgt>
<wgt id='55'> +1.6646034e+01 </wgt>
<wgt id='56'> +1.7363839e+01 </wgt>
<wgt id='57'> +1.7415716e+01 </wgt>
<wgt id='58'> +1.8366840e+01 </wgt>
<wgt id='59'> +1.7013388e+01 </wgt>
<wgt id='60'> +1.6794644e+01 </wgt>
<wgt id='61'> +1.8144671e+01 </wgt>
<wgt id='62'> +1.7208596e+01 </wgt>
<wgt id='63'> +1.7598600e+01 </wgt>
<wgt id='64'> +1.8031728e+01 </wgt>
<wgt id='65'> +1.9310732e+01 </wgt>
<wgt id='66'> +1.7101898e+01 </wgt>
<wgt id='67'> +1.7684593e+01 </wgt>
<wgt id='68'> +1.7919898e+01 </wgt>
<wgt id='69'> +1.6253645e+01 </wgt>
<wgt id='70'> +1.7549718e+01 </wgt>
<wgt id='71'> +1.7849474e+01 </wgt>
<wgt id='72'> +1.8717083e+01 </wgt>
<wgt id='73'> +1.7750283e+01 </wgt>
<wgt id='74'> +1.7331512e+01 </wgt>
<wgt id='75'> +1.7590086e+01 </wgt>
<wgt id='76'> +1.7473426e+01 </wgt>
<wgt id='77'> +1.6768696e+01 </wgt>
<wgt id='78'> +1.8119311e+01 </wgt>
<wgt id='79'> +1.6784461e+01 </wgt>
<wgt id='80'> +1.7665730e+01 </wgt>
<wgt id='81'> +1.7644894e+01 </wgt>
<wgt id='82'> +1.8139494e+01 </wgt>
<wgt id='83'> +1.7253603e+01 </wgt>
<wgt id='84'> +1.8195001e+01 </wgt>
<wgt id='85'> +1.8036577e+01 </wgt>
<wgt id='86'> +1.7010313e+01 </wgt>
<wgt id='87'> +1.7348530e+01 </wgt>
<wgt id='88'> +1.7339041e+01 </wgt>
<wgt id='89'> +1.7564227e+01 </wgt>
<wgt id='90'> +1.7597436e+01 </wgt>
<wgt id='91'> +1.8454714e+01 </wgt>
<wgt id='92'> +1.8032158e+01 </wgt>
<wgt id='93'> +1.6992874e+01 </wgt>
<wgt id='94'> +1.7972443e+01 </wgt>
<wgt id='95'> +1.7515798e+01 </wgt>
<wgt id='96'> +1.7543883e+01 </wgt>
<wgt id='97'> +1.8061809e+01 </wgt>
<wgt id='98'> +1.6857509e+01 </wgt>
<wgt id='99'> +1.7438184e+01 </wgt>
<wgt id='100'> +1.8591822e+01 </wgt>
<wgt id='101'> +1.7130223e+01 </wgt>
<wgt id='102'> +1.6203508e+01 </wgt>
<wgt id='103'> +1.8097941e+01 </wgt>
<wgt id='104'> +1.7071790e+01 </wgt>
<wgt id='105'> +1.8661792e+01 </wgt>
<wgt id='106'> +1.7772024e+01 </wgt>
<wgt id='107'> +1.8548091e+01 </wgt>
<wgt id='108'> +1.7302350e+01 </wgt>
<wgt id='109'> +1.7532398e+01 </wgt>
<wgt id='110'> +1.7892944e+01 </wgt>
<wgt id='111'> +1.7606704e+01 </wgt>
<wgt id='112'> +1.7539764e+01 </wgt>
<wgt id='113'> +1.7115497e+01 </wgt>
<wgt id='114'> +1.8589637e+01 </wgt>
<wgt id='115'> +1.8272057e+01 </wgt>
<wgt id='116'> +1.6583433e+01 </wgt>
<wgt id='117'> +1.7927462e+01 </wgt>
<wgt id='118'> +1.7041542e+01 </wgt>
<wgt id='119'> +1.7521908e+01 </wgt>
<wgt id='120'> +1.7871248e+01 </wgt>
<wgt id='121'> +1.7705076e+01 </wgt>
<wgt id='122'> +1.7545120e+01 </wgt>
<wgt id='123'> +1.7299773e+01 </wgt>
<wgt id='124'> +1.7443322e+01 </wgt>
<wgt id='125'> +1.7649910e+01 </wgt>
<wgt id='126'> +1.7549062e+01 </wgt>
<wgt id='127'> +1.7565299e+01 </wgt>
<wgt id='128'> +1.6975021e+01 </wgt>
<wgt id='129'> +1.8962854e+01 </wgt>
<wgt id='130'> +1.7136396e+01 </wgt>
<wgt id='131'> +1.8450266e+01 </wgt>
<wgt id='132'> +1.7146862e+01 </wgt>
<wgt id='133'> +1.6848751e+01 </wgt>
<wgt id='134'> +1.6841303e+01 </wgt>
<wgt id='135'> +1.7879555e+01 </wgt>
<wgt id='136'> +1.6880274e+01 </wgt>
<wgt id='137'> +1.6418342e+01 </wgt>
<wgt id='138'> +1.5330360e+01 </wgt>
<wgt id='139'> +1.7525939e+01 </wgt>
<wgt id='140'> +1.8682481e+01 </wgt>
<wgt id='141'> +1.7282991e+01 </wgt>
<wgt id='142'> +1.8372645e+01 </wgt>
<wgt id='143'> +1.7332973e+01 </wgt>
<wgt id='144'> +1.8168345e+01 </wgt>
<wgt id='145'> +1.7512882e+01 </wgt>
</rwgt>
</event>
<event>
 3      1 +1.7556000e+01 1.25000000e+02 7.54677100e-03 1.23506900e-01
       21 -1    0    0  502  501 +0.0000000000e+00 +0.0000000000e+00 +5.1096797108e+00 5.1096797108e+00 0.0000000000e+00 0.0000e+00 -1.0000e+00
       21 -1    0    0  501  502 -0.0000000000e+00 -0.0000000000e+00 -7.6448040211e+02 7.6448040211e+02 0.0000000000e+00 0.0000e+00 -1.0000e+00
       25  1    1    2    0    0 +0.0000000000e+00 +0.0000000000e+00 -7.5937072240e+02 7.6959008182e+02 1.2500000000e+02 0.0000e+00 0.0000e+00
<mgrwt>
<rscale>  0 0.12500000E+03</rscale>
<asrwt>0</asrwt>
<pdfrwt beam="1">  1       21 0.78610518E-03 0.12500000E+03</pdfrwt>
<pdfrwt beam="2">  1       21 0.11761228E+00 0.12500000E+03</pdfrwt>
<totfact> 0.30391534E+06</totfact>
</mgrwt>
<rwgt>
<wgt id='1'> +1.7181058e+01 </wgt>
<wgt id='2'> +0.0000000e+00 </wgt>
<wgt id='3'> +1.7181058e+01 </wgt>
<wgt id='4'> +1.6419811e+01 </wgt>
<wgt id='5'> +1.7181058e+01 </wgt>
<wgt id='6'> +1.7556000e+01 </wgt>
<wgt id='7'> +0.0000000e+00 </wgt>
<wgt id='8'> +1.7556000e+01 </wgt>
<wgt id='9'> +1.7181058e+01 </wgt>
<wgt id='10'> +1.7556000e+01 </wgt>
<wgt id='11'> +1.7514257e+01 </wgt>
<wgt id='12'> +0.0000000e+00 </wgt>
<wgt id='13'> +1.7514257e+01 </wgt>
<wgt id='14'> +1.7556000e+01 </wgt>
<wgt id='15'> +1.7514257e+01 </wgt>
<wgt id='16'> +1.7181058e+01 </wgt>
<wgt id='17'> +0.0000000e+00 </wgt>
<wgt id='18'> +1.7181058e+01 </wgt>
<wgt id='19'> +1.6419811e+01 </wgt>
<wgt id='20'> +1.7181058e+01 </wgt>
<wgt id='21'> +0.0000000e+00 </wgt>
<wgt id='22'> +1.7556000e+01 </wgt>
<wgt id='23'> +1.7181058e+01 </wgt>
<wgt id='24'> +1.7556000e+01 </wgt>
<wgt id='25'> +1.7514257e+01 </wgt>
<wgt id='26'> +0.0000000e+00 </wgt>
<wgt id='27'> +1.7514257e+01 </wgt>
<wgt id='28'> +1.7556000e+01 </wgt>
<wgt id='29'> +1.7514257e+01 </wgt>
<wgt id='30'> +1.7181058e+01 </wgt>
<wgt id='31'> +0.0000000e+00 </wgt>
<wgt id='32'> +1.7181058e+01 </wgt>
<wgt id='33'> +1.6419811e+01 </wgt>
<wgt id='34'> +1.7181058e+01 </wgt>
<wgt id='35'> +1.7556000e+01 </wgt>
<wgt id='36'> +0.0000000e+00 </wgt>
<wgt id='37'> +1.7556000e+01 </wgt>
<wgt id='38'> +1.7181058e+01 </wgt>
<wgt id='39'> +1.7556000e+01 </wgt>
<wgt id='40'> +1.7514257e+01 </wgt>
<wgt id='41'> +0.0000000e+00 </wgt>
<wgt id='42'> +1.7514257e+01 </wgt>
<wgt id='43'> +1.7556000e+01 </wgt>
<wgt id='44'> +1.7514257e+01 </wgt>
<wgt id='45'> +1.7556000e+01 </wgt>
<wgt id='46'> +1.8020065e+01 </wgt>
<wgt id='47'> +1.7578122e+01 </wgt>
<wgt id='48'> +1.7686756e+01 </wgt>
<wgt id='49'> +1.7440375e+01 </wgt>
<wgt id='50'> +1.9504420e+01 </wgt>
<wgt id='51'> +1.7195897e+01 </wgt>
<wgt id='52'> +1.7640453e+01 </wgt>
<wgt id='53'> +1.6975580e+01 </wgt>
<wgt id='54'> +1.7900395e+01 </wgt>
<wgt id='55'> +1.7713070e+01 </wgt>
<wgt id='56'> +1.6513108e+01 </wgt>
<wgt id='57'> +1.7932034e+01 </wgt>
<wgt id='58'> +1.7199861e+01 </wgt>
<wgt id='59'> +1.8651514e+01 </wgt>
<wgt id='60'> +1.8450469e+01 </wgt>
<wgt id='61'> +1.5230032e+01 </wgt>
<wgt id='62'> +1.7297468e+01 </wgt>
<wgt id='63'> +1.7841374e+01 </wgt>
<wgt id='64'> +1.7484344e+01 </wgt>
<wgt id='65'> +1.7888311e+01 </wgt>
<wgt id='66'> +1.7244294e+01 </wgt>
<wgt id='67'> +1.7426720e+01 </wgt>
<wgt id='68'> +1.8951924e+01 </wgt>
<wgt id='69'> +1.7519131e+01 </wgt>
<wgt id='70'> +1.7435505e+01 </wgt>
<wgt id='71'> +1.7225809e+01 </wgt>
<wgt id='72'> +1.7073408e+01 </wgt>
<wgt id='73'> +1.7193312e+01 </wgt>
<wgt id='74'> +1.8722456e+01 </wgt>
<wgt id='75'> +1.8104298e+01 </wgt>
<wgt id='76'> +1.7483523e+01 </wgt>
<wgt id='77'> +1.7574327e+01 </wgt>
<wgt id='78'> +1.6515056e+01 </wgt>
<wgt id='79'> +1.8035895e+01 </wgt>
<wgt id='80'> +1.6783133e+01 </wgt>
<wgt id='81'> +1.7260933e+01 </wgt>
<wgt id='82'> +1.6963428e+01 </wgt>
<wgt id='83'> +1.7282318e+01 </wgt>
<wgt id='84'> +1.7611135e+01 </wgt>
<wgt id='85'> +1.7503396e+01 </wgt>
<wgt id='86'> +1.7720227e+01 </wgt>
<wgt id='87'> +1.7775900e+01 </wgt>
<wgt id='88'> +1.6987671e+01 </wgt>
<wgt id='89'> +1.7777630e+01 </wgt>
<wgt id='90'> +1.7907832e+01 </wgt>
<wgt id='91'> +1.7222445e+01 </wgt>
<wgt id='92'> +1.6339516e+01 </wgt>
<wgt id='93'> +1.7861776e+01 </wgt>
<wgt id='94'> +1.6994655e+01 </wgt>
<wgt id='95'> +1.7722554e+01 </wgt>
<wgt id='96'> +1.8239479e+01 </wgt>
<wgt id='97'> +1.7052216e+01 </wgt>
<wgt id='98'> +1.7546694e+01 </wgt>
<wgt id='99'> +1.6879539e+01 </wgt>
<wgt id='100'> +1.6068328e+01 </wgt>
<wgt id='101'> +1.9395372e+01 </wgt>
<wgt id='102'> +1.8562107e+01 </wgt>
<wgt id='103'> +1.8327280e+01 </wgt>
<wgt id='104'> +1.7534805e+01 </wgt>
<wgt id='105'> +1.7807658e+01 </wgt>
<wgt id='106'> +1.6503990e+01 </wgt>
<wgt id='107'> +1.6761597e+01 </wgt>
<wgt id='108'> +1.5932810e+01 </wgt>
<wgt id='109'> +1.7086609e+01 </wgt>
<wgt id='110'> +1.7479414e+01 </wgt>
<wgt id='111'> +1.7107641e+01 </wgt>
<wgt id='112'> +1.7032184e+01 </wgt>
<wgt id='113'> +1.7098770e+01 </wgt>
<wgt id='114'> +1.7316690e+01 </wgt>
<wgt id='115'> +1.6201701e+01 </wgt>
<wgt id='116'> +1.8323759e+01 </wgt>
<wgt id='117'> +1.7149576e+01 </wgt>
<wgt id='118'> +1.8515888e+01 </wgt>
<wgt id='119'> +1.7683554e+01 </wgt>
<wgt id='120'> +1.7119306e+01 </wgt>
<wgt id='121'> +1.7664985e+01 </wgt>
<wgt id='122'> +1.7451773e+01 </wgt>
<wgt id='123'> +1.7399995e+01 </wgt>
<wgt id='124'> +1.9093248e+01 </wgt>
<wgt id='125'> +1.9582394e+01 </wgt>
<wgt id='126'> +1.7794800e+01 </wgt>
<wgt id='127'> +1.7863897e+01 </wgt>
<wgt id='128'> +1.6066662e+01 </wgt>
<wgt id='129'> +1.8651711e+01 </wgt>
<wgt id='130'> +1.6728239e+01 </wgt>
<wgt id='131'> +1.7624978e+01 </wgt>
<wgt id='132'> +1.8823674e+01 </wgt>
<wgt id='133'> +1.8423316e+01 </wgt>
<wgt id='134'> +1.7564697e+01 </wgt>
<wgt id='135'> +1.7659379e+01 </wgt>
<wgt id='136'> +1.8991602e+01 </wgt>
<wgt id='137'> +1.7079383e+01 </wgt>
<wgt id='138'> +1.7046845e+01 </wgt>
<wgt id='139'> +1.8298534e+01 </wgt>
<wgt id='140'> +1.7611770e+01 </wgt>
<wgt id='141'> +1.7808944e+01 </wgt>
<wgt id='142'> +1.6121173e+01 </wgt>
<wgt id='143'> +1.8043201e+01 </wgt>
<wgt id='144'> +1.7040956e+01 </wgt>
<wgt id='145'> +1.7049493e+01 </wgt>
</rwgt>
</event>
<event>
 3      1 +1.7556000e+01 1.25000000e+02 7.54677100e-03 1.23506900e-01
       21 -1    0    0  502  501 +0.0000000000e+00 +0.0000000000e+00 +1.7614882017e+02 1.7614882017e+02 0.0000000000e+00 0.0000e+00 -1.0000e+00
       21 -1    0    0  501  502 -0.0000000000e+00 -0.0000000000e+00 -2.2175851058e+01 2.2175851058e+01 0.0000000000e+00 0.0000e+00 -1.0000e+00
       25  1    1    2    0    0 +0.0000000000e+00 +0.0000000000e+00 +1.5397296911e+02 1.9832467122e+02 1.2500000000e+02 0.0000e+00 0.0000e+00
<mgrwt>
<rscale>  0 0.12500000E+03</rscale>
<asrwt>0</asrwt>
<pdfrwt beam="1">  1       21 0.27099818E-01 0.12500000E+03</pdfrwt>
<pdfrwt beam="2">  1       21 0.34116695E-02 0.12500000E+03</pdfrwt>
<totfact> 0.65108972E+06</totfact>
</mgrwt>
<rwgt>
<wgt id='1'> +1.6720430e+01 </wgt>
<wgt id='2'> +0.0000000e+00 </wgt>
<wgt id='3'> +1.6720430e+01 </wgt>
<wgt id='4'> +1.5503173e+01 </wgt>
<wgt id='5'> +1.6720430e+01 </wgt>
<wgt id='6'> +1.7556000e+01 </wgt>
<wgt id='7'> +0.0000000e+00 </wgt>
<wgt id='8'> +1.7556000e+01 </wgt>
<wgt id='9'> +1.6720430e+01 </wgt>
<wgt id='10'> +1.7556000e+01 </wgt>
<wgt id='11'> +1.7950795e+01 </wgt>
<wgt id='12'> +0.0000000e+00 </wgt>
<wgt id='13'> +1.7950795e+01 </wgt>
<wgt id='14'> +1.7556000e+01 </wgt>
<wgt id='15'> +1.7950795e+01 </wgt>
<wgt id='16'> +1.6720430e+01 </wgt>
<wgt id='17'> +0.0000000e+00 </wgt>
<wgt id='18'> +1.6720430e+01 </wgt>
<wgt id='19'> +1.5503173e+01 </wgt>
<wgt id='20'> +1.6720430e+01 </wgt>
<wgt id='21'> +0.0000000e+00 </wgt>
<wgt id='22'> +1.7556000e+01 </wgt>
<wgt id='23'> +1.6720430e+01 </wgt>
<wgt id='24'> +1.7556000e+01 </wgt>
<wgt id='25'> +1.7950795e+01 </wgt>
<wgt id='26'> +0.0000000e+00 </wgt>
<wgt id='27'> +1.7950795e+01 </wgt>
<wgt id='28'> +1.7556000e+01 </wgt>
<wgt id='29'> +1.7950795e+01 </wgt>
<wgt id='30'> +1.6720430e+01 </wgt>
<wgt id='31'> +0.0000000e+00 </wgt>
<wgt id='32'> +1.6720430e+01 </wgt>
<wgt id='33'> +1.5503173e+01 </wgt>
<wgt id='34'> +1.6720430e+01 </wgt>
<wgt id='35'> +1.7556000e+01 </wgt>
<wgt id='36'> +0.0000000e+00 </wgt>
<wgt id='37'> +1.7556000e+01 </wgt>
<wgt id='38'> +1.6720430e+01 </wgt>
<wgt id='39'> +1.7556000e+01 </wgt>
<wgt id='40'> +1.7950795e+01 </wgt>
<wgt id='41'> +0.0000000e+00 </wgt>
<wgt id='42'> +1.7950795e+01 </wgt>
<wgt id='43'> +1.7556000e+01 </wgt>
<wgt id='44'> +1.7950795e+01 </wgt>
<wgt id='45'> +1.7556000e+01 </wgt>
<wgt id='46'> +1.7124840e+01 </wgt>
<wgt id='47'> +1.7562478e+01 </wgt>
<wgt id='48'> +1.7265231e+01 </wgt>
<wgt id='49'> +1.7640778e+01 </wgt>
<wgt id='50'> +1.8178551e+01 </wgt>
<wgt id='51'> +1.7308051e+01 </wgt>
<wgt id='52'> +1.7425389e+01 </wgt>
<wgt id='53'> +1.7884613e+01 </wgt>
<wgt id='54'> +1.7633025e+01 </wgt>
<wgt id='55'> +1.6493433e+01 </wgt>
<wgt id='56'> +1.7233538e+01 </wgt>
<wgt id='57'> +1.7315359e+01 </wgt>
<wgt id='58'> +1.8271875e+01 </wgt>
<wgt id='59'> +1.7095068e+01 </wgt>
<wgt id='60'> +1.7004479e+01 </wgt>
<wgt id='61'> +1.7965839e+01 </wgt>
<wgt id='62'> +1.7297315e+01 </wgt>
<wgt id='63'> +1.7627413e+01 </wgt>
<wgt id='64'> +1.7935835e+01 </wgt>
<wgt id='65'> +1.9288430e+01 </wgt>
<wgt id='66'> +1.7108885e+01 </wgt>
<wgt id='67'> +1.7652471e+01 </wgt>
<wgt id='68'> +1.8024797e+01 </wgt>
<wgt id='69'> +1.6424671e+01 </wgt>
<wgt id='70'> +1.7476840e+01 </wgt>
<wgt id='71'> +1.7768293e+01 </wgt>
<wgt id='72'> +1.8309788e+01 </wgt>
<wgt id='73'> +1.7751140e+01 </wgt>
<wgt id='74'> +1.7505277e+01 </wgt>
<wgt id='75'> +1.7671184e+01 </wgt>
<wgt id='76'> +1.7322024e+01 </wgt>
<wgt id='77'> +1.6890437e+01 </wgt>
<wgt id='78'> +1.8002705e+01 </wgt>
<wgt id='79'> +1.6899499e+01 </wgt>
<wgt id='80'> +1.7582407e+01 </wgt>
<wgt id='81'> +1.7539729e+01 </wgt>
<wgt id='82'> +1.8117258e+01 </wgt>
<wgt id='83'> +1.7331420e+01 </wgt>
<wgt id='84'> +1.8246679e+01 </wgt>
<wgt id='85'> +1.8169010e+01 </wgt>
<wgt id='86'> +1.7118410e+01 </wgt>
<wgt id='87'> +1.7429078e+01 </wgt>
<wgt id='88'> +1.7359619e+01 </wgt>
<wgt id='89'> +1.7746792e+01 </wgt>
<wgt id='90'> +1.7660041e+01 </wgt>
<wgt id='91'> +1.8454569e+01 </wgt>
<wgt id='92'> +1.7502143e+01 </wgt>
<wgt id='93'> +1.7144034e+01 </wgt>
<wgt id='94'> +1.7851859e+01 </wgt>
<wgt id='95'> +1.7332320e+01 </wgt>
<wgt id='96'> +1.7814450e+01 </wgt>
<wgt id='97'> +1.7973861e+01 </wgt>
<wgt id='98'> +1.6820299e+01 </wgt>
<wgt id='99'> +1.7492264e+01 </wgt>
<wgt id='100'> +1.8379854e+01 </wgt>
<wgt id='101'> +1.7399723e+01 </wgt>
<wgt id='102'> +1.6431013e+01 </wgt>
<wgt id='103'> +1.8288626e+01 </wgt>
<wgt id='104'> +1.7117365e+01 </wgt>
<wgt id='105'> +1.8478278e+01 </wgt>
<wgt id='106'> +1.7422452e+01 </wgt>
<wgt id='107'> +1.8273096e+01 </wgt>
<wgt id='108'> +1.6973049e+01 </wgt>
<wgt id='109'> +1.7351403e+01 </wgt>
<wgt id='110'> +1.7883038e+01 </wgt>
<wgt id='111'> +1.7454238e+01 </wgt>
<wgt id='112'> +1.7389557e+01 </wgt>
<wgt id='113'> +1.6975095e+01 </wgt>
<wgt id='114'> +1.8306285e+01 </wgt>
<wgt id='115'> +1.8040251e+01 </wgt>
<wgt id='116'> +1.6820624e+01 </wgt>
<wgt id='117'> +1.7873872e+01 </wgt>
<wgt id='118'> +1.7288540e+01 </wgt>
<wgt id='119'> +1.7395413e+01 </wgt>
<wgt id='120'> +1.7779970e+01 </wgt>
<wgt id='121'> +1.7606092e+01 </wgt>
<wgt id='122'> +1.7503544e+01 </wgt>
<wgt id='123'> +1.7390016e+01 </wgt>
<wgt id='124'> +1.7659490e+01 </wgt>
<wgt id='125'> +1.7845909e+01 </wgt>
<wgt id='126'> +1.7752146e+01 </wgt>
<wgt id='127'> +1.7701511e+01 </wgt>
<wgt id='128'> +1.6819211e+01 </wgt>
<wgt id='129'> +1.9006399e+01 </wgt>
<wgt id='130'> +1.7174626e+01 </wgt>
<wgt id='131'> +1.8480125e+01 </wgt>
<wgt id='132'> +1.7188028e+01 </wgt>
<wgt id='133'> +1.7020502e+01 </wgt>
<wgt id='134'> +1.6801704e+01 </wgt>
<wgt id='135'> +1.7917641e+01 </wgt>
<wgt id='136'> +1.6886757e+01 </wgt>
<wgt id='137'> +1.6460472e+01 </wgt>
<wgt id='138'> +1.5545160e+01 </wgt>
<wgt id='139'> +1.7665714e+01 </wgt>
<wgt id='140'> +1.8621296e+01 </wgt>
<wgt id='141'> +1.7281725e+01 </wgt>
<wgt id='142'> +1.8272325e+01 </wgt>
<wgt id='143'> +1.7351226e+01 </wgt>
<wgt id='144'> +1.8018435e+01 </wgt>
<wgt id='145'> +1.7485792e+01 </wgt>
</rwgt>
</event>
</LesHouchesEvents>
